 Job started on host 1idjl
 at Sun May 10 20:58:49 2026

 +-------------------------------------------------+
 |                                                 |
 |      CCC   AA    SSS  TTTTT  EEEEE  PPPP        |
 |     C     A  A  S       T    E      P   P       |
 |     C     AAAA   SS     T    EEE    PPPP        |
 |     C     A  A     S    T    E      P           |
 |      CCC  A  A  SSS     T    EEEEE  P           |
 |                                                 |
 +-------------------------------------------------+
 |                                                 |
 | Materials Studio CASTEP version 2024            |
 | Ab Initio Total Energy Program                  |
 |                                                 |
 | Authors:                                        |
 | M. Segall, M. Probert, C. Pickard, P. Hasnip,   |
 | S. Clark, K. Refson, J. R. Yates,               |
 | A. Bartok-Partay, M. Payne                      |
 |                                                 |
 | Contributors:                                   |
 | P. Lindan, P. Haynes, J. White, V. Milman,      |
 | N. Govind, M. Gibson, P. Tulip, V. Cocula,      |
 | B. Montanari, D. Quigley, M. Glover,            |
 | L. Bernasconi, A. Perlov, M. Plummer,           |
 | E. McNellis, J. Meyer, J. Gale, D. Jochym       |
 | J. Aarons, B. Walker, R. Gillen, D. Jones       |
 | T. Green, I. J. Bush, C. J. Armstrong,          |
 | E. J. Higgins, E. L. Brown, M. S. McFly,        |
 | J. Wilkins, B-C. Shih, P. J. P. Byrne,          |
 | R. J. Maurer, J. C. Womack, J. Dziedzic,        |
 | L. LeBlanc, T. K. Stenczel, J. Kermode,         |
 | S. Sturniolo, B. Shi, B. Durham, M. Evans,      |
 | M. J. Smith, A. Tamerus, Z. Hawkhead,           |
 | V. Ravindran, T. Hollins, S. A. Joyce,          |
 | R. T. Strong, A. M. Reilly                      |
 |                                                 |
 | Copyright (c) 2000 - 2023                       |
 |                                                 |
 | Please cite                                     |
 |                                                 |
 |     "First principles methods using CASTEP"     |
 |                                                 |
 |         Zeitschrift fuer Kristallographie       |
 |           220(5-6) pp. 567-570 (2005)           |
 |                                                 |
 | S. J. Clark, M. D. Segall, C. J. Pickard,       |
 | P. J. Hasnip, M. J. Probert, K. Refson,         |
 | M. C. Payne                                     |
 |                                                 |
 |       in all publications arising from          |
 |              your use of CASTEP                 |
 |                                                 |
 +-------------------------------------------------+
 |                                                 |
 |              http://www.castep.org              |
 |                                                 |
 +-------------------------------------------------+
 
 
 This version was compiled for x86_64-windows-msvc2017 on Oct 24 2023
 Code version:    a9f326b
 Intel(R) Math Kernel Library Version 2019.0.4 
 Fundamental constants values: CODATA 2018
 
License checkout of MS_castep successful
 
 
 Atomic calculation performed for N: 1s2 2s2 2p3
 
 Converged in 55 iterations to an ae energy of -1481.742 eV
 
 Identity difference: 2.27E-04
 
   ============================================================                
   | Pseudopotential Report - Date of generation 10-05-2026   |                
   ------------------------------------------------------------                
   | Element: N Ionic charge:  5.00 Level of theory: PBE      |                
   | Atomic Solver: Koelling-Harmon                           |                
   |                                                          |                
   |               Reference Electronic Structure             |                
   |         Orbital         Occupation         Energy        |                
   |            2s              2.000           -0.683        |                
   |            2p              3.000           -0.261        |                
   |                                                          |                
   |                 Pseudopotential Definition               |                
   |        Beta     l      e      Rc     scheme   norm       |                
   |          1      0   -0.683   1.100     qc      0         |                
   |          2      0    0.250   1.100     qc      0         |                
   |          3      1   -0.261   1.100     qc      0         |                
   |          4      1    0.250   1.100     qc      0         |                
   |         loc     2    0.000   1.100     pn      0         |                
   |                                                          |                
   | Augmentation charge Rinner = 0.769                       |                
   | Partial core correction Rc = 0.769                       |                
   ------------------------------------------------------------                
   | "2|1.1|12|16|19|20UU:21UU(qc=7)[]"                       |                
   ------------------------------------------------------------                
   |      Author: Chris J. Pickard, Cambridge University      |                
   ============================================================                
 
 Doing a self consistent calculation for the test configuration
 
 Atomic calculation performed for N: 1s2 2s2 2p3
 
 Converged in 55 iterations to an ae energy of -1481.742 eV
 
 ---------------------------------------
 AE eigenvalue nl 10 =      -14.13820921
 AE eigenvalue nl 20 =       -0.68290611
 AE eigenvalue nl 21 =       -0.26054797
 ---------------------------------------
 PS eigenvalue nl 20 =       -0.68291221
 PS eigenvalue nl 21 =       -0.26051708
 ---------------------------------------
 Maximum eigenvalue error:   3.09E-05
 
 Derived cutoff energies: C=  10 M=  15 F=  18 E=  23
 
 Checking for ghost states up to   1.48495 Ha
 
 No Ghost States Identified
 
 ***************************************
 
 Atomic calculation performed for Si: 1s2 2s2 2p6 3s2 3p2
 
 Converged in 54 iterations to an ae energy of -7886.857 eV
 
 Identity difference: 1.35E-04
 
   ============================================================                
   | Pseudopotential Report - Date of generation 10-05-2026   |                
   ------------------------------------------------------------                
   | Element: Si Ionic charge:  4.00 Level of theory: PBE     |                
   | Atomic Solver: Koelling-Harmon                           |                
   |                                                          |                
   |               Reference Electronic Structure             |                
   |         Orbital         Occupation         Energy        |                
   |            3s              2.000           -0.397        |                
   |            3p              2.000           -0.150        |                
   |                                                          |                
   |                 Pseudopotential Definition               |                
   |        Beta     l      e      Rc     scheme   norm       |                
   |          1      0   -0.397   1.797     qc      0         |                
   |          2      0    0.250   1.797     qc      0         |                
   |          3      1   -0.150   1.797     qc      0         |                
   |          4      1    0.250   1.797     qc      0         |                
   |          5      2    0.000   1.797     qc      0         |                
   |          6      2    0.250   1.797     qc      0         |                
   |         loc     3    0.000   1.797     pn      0         |                
   |                                                          |                
   | Augmentation charge Rinner = 1.255                       |                
   | Partial core correction Rc = 1.255                       |                
   ------------------------------------------------------------                
   | "3|1.8|3.6|5|7|30UU:31UU:32UU[]"                         |                
   ------------------------------------------------------------                
   |      Author: Chris J. Pickard, Cambridge University      |                
   ============================================================                
 
 Doing a self consistent calculation for the test configuration
 
 Atomic calculation performed for Si: 1s2 2s2 2p6 3s2 3p2
 
 Converged in 54 iterations to an ae energy of -7886.857 eV
 
 ---------------------------------------
 AE eigenvalue nl 10 =      -65.63192903
 AE eigenvalue nl 20 =       -5.12654326
 AE eigenvalue nl 21 =       -3.51173659
 AE eigenvalue nl 30 =       -0.39736430
 AE eigenvalue nl 31 =       -0.14998156
 ---------------------------------------
 PS eigenvalue nl 30 =       -0.39734855
 PS eigenvalue nl 31 =       -0.14996676
 ---------------------------------------
 Maximum eigenvalue error:   1.58E-05
 
 Derived cutoff energies: C=   1 M=   3 F=   5 E=   8
 
 Checking for ghost states up to   1.41206 Ha
 
 No Ghost States Identified
 
 ***************************************
 
 Pseudo atomic calculation performed for N 2s2 2p3
 
 Converged in 22 iterations to a total energy of -268.1421 eV
 
 Pseudo atomic calculation performed for Si 3s2 3p2
 
 Converged in 11 iterations to a total energy of -165.0681 eV
 Calculation not parallelised.

 ************************************ Title ************************************
 CASTEP calculation from BIOVIA Materials Studio 2024

 ***************************** General Parameters ******************************
  
 output verbosity                               : normal  (1)
 write checkpoint data to                       : a_Si3N4_structure.check
 type of calculation                            : geometry optimization
 stress calculation                             : on
 density difference calculation                 : off
 electron localisation func (ELF) calculation   : off
 Hirshfeld analysis                             : on
 polarisation (Berry phase) analysis            : off
 molecular orbital projected DOS                : off
 deltaSCF calculation                           : off
 unlimited duration calculation
 timing information                             : on
 memory usage estimate                          : on
 write extra output files                       : on
 write final potential to formatted file        : off
 write final density to formatted file          : off
 write BibTeX reference list                    : on
 write OTFG pseudopotential files               : on
 write electrostatic potential file             : on
 write bands file                               : on
 checkpoint writing                             : both castep_bin and check files
  
 output         length unit                     : A
 output           mass unit                     : amu
 output           time unit                     : ps
 output         charge unit                     : e
 output           spin unit                     : hbar/2
 output         energy unit                     : eV
 output          force unit                     : eV/A
 output       velocity unit                     : A/ps
 output       pressure unit                     : GPa
 output     inv_length unit                     : 1/A
 output      frequency unit                     : cm-1
 output force constant unit                     : eV/A**2
 output         volume unit                     : A**3
 output   IR intensity unit                     : (D/A)**2/amu
 output         dipole unit                     : D
 output         efield unit                     : eV/A/e
 output        entropy unit                     : J/mol/K
 output    efield chi2 unit                     : pm/V
  
 wavefunctions paging                           : none
 random number generator seed                   :  205850390
 data distribution                              : optimal for this architecture
 optimization strategy                          : balance speed and memory

 *********************** Exchange-Correlation Parameters ***********************
  
 using functional                               : Perdew Burke Ernzerhof
 relativistic treatment                         : Koelling-Harmon
 DFT+D: Semi-empirical dispersion correction    : off

 ************************* Pseudopotential Parameters **************************
  
 pseudopotential representation                 : reciprocal space
 <beta|phi> representation                      : reciprocal space
 spin-orbit coupling                            : off

 **************************** Basis Set Parameters *****************************
  
 plane wave basis set cut-off                   :   550.0000   eV
 size of standard grid                          :     1.7500
 size of   fine   grid                          :     2.1000
 size of   fine   gmax                          :    25.2313   1/A
 largest prime factor in FFT                    :          5
 finite basis set correction                    : automatic
 number of sample energies                      :          3
           sample  spacing                      :     5.0000   eV

 **************************** Electronic Parameters ****************************
  
 number of  electrons                           :  148.0    
 net charge of system                           :  0.000    
 treating system as non-spin-polarized
 number of bands                                :         89

 ********************* Electronic Minimization Parameters **********************
  
 Method: Treating system as metallic with density mixing treatment of electrons,
         and number of  SD  steps               :          1
         and number of  CG  steps               :          4
  
 total energy / atom convergence tol.           : 0.1000E-05   eV
 eigen-energy convergence tolerance             : 0.3596E-06   eV
 max force / atom convergence tol.              : ignored
 convergence tolerance window                   :          3   cycles
 max. number of SCF cycles                      :        100
 number of fixed-spin iterations                :         10
 smearing scheme                                : Gaussian
 smearing width                                 : 0.1000       eV
 Fermi energy convergence tolerance             : 0.2721E-13   eV
 periodic dipole correction                     : NONE

 ************************** Density Mixing Parameters **************************
  
 density-mixing scheme                          : Pulay
 max. length of mixing history                  :         20
 charge density mixing amplitude                : 0.5000    
 cut-off energy for mixing                      :  550.0       eV
 charge density mixing g-vector                 :  1.500       1/A

 *********************** Population Analysis Parameters ************************
  
 Population analysis with cutoff                :  3.000       A
 Population analysis output                     : summary only

 ********************** Geometry Optimization Parameters ***********************
  
 optimization method                            : LBFGS
 max. no. of LBFGS updates                      : unbounded
 preconditioned LBFGS is activated
 preconditioner type                            : EXP
     stabilization constant                     :     0.1000
     parameter A                                :     3.0000
     nearest neighbor distance                  : automatic
     cut-off distance                           : automatic
     parameter mu                               : automatic
 variable cell method                           : fixed basis quality
 max. number of steps                           :        100
 estimated bulk modulus                         :  500.0       GPa
 estimated <frequency>                          :  1668.       cm-1
 geom line minimiser                            : on
 with line minimiser tolerance                  :     0.4000
 total energy convergence tolerance             : 0.1000E-04   eV/atom
        max ionic |force| tolerance             : 0.3000E-01   eV/A
 max ionic |displacement| tolerance             : 0.1000E-02   A
   max |stress component| tolerance             : 0.5000E-01   GPa
 convergence tolerance window                   :          2   steps
 backup results every                           :          5   steps
 write geom trajectory file                     : on

 *******************************************************************************
  
 
                           -------------------------------
                                      Unit Cell
                           -------------------------------
        Real Lattice(A)                      Reciprocal Lattice(1/A)
     6.7134289    -3.8760000     0.0000000        0.935912985   0.000000000   0.000000000
     0.0000000     7.7520000     0.0000000        0.467956492   0.810524420   0.000000000
     0.0000000     0.0000000     5.6220000        0.000000000   0.000000000   1.117606778
 
                       Lattice parameters(A)       Cell Angles
                    a =      7.752000          alpha =   90.000000
                    b =      7.752000          beta  =   90.000000
                    c =      5.622000          gamma =  120.000000
 
                       Current cell volume =           292.582941       A**3
                                   density =             2.109353   AMU/A**3
                                           =             3.502664     g/cm^3
 
                           -------------------------------
                                     Cell Contents
                           -------------------------------
                         Total number of ions in cell =   32
                      Total number of species in cell =    2
                        Max number of any one species =   20
 
            xxxxxxxxxxxxxxxxxxxxxxxxxxxxxxxxxxxxxxxxxxxxxxxxxxxxxxxxxxxx
            x  Element    Atom        Fractional coordinates of atoms  x
            x            Number           u          v          w      x
            x----------------------------------------------------------x
            x  N            1         0.655000   0.612000   0.435000   x 
            x  N            2         0.316000   0.318000   0.702000   x 
            x  N            3         0.047000   0.320000   0.430000   x 
            x  N            4        -0.612000   0.043000   0.435000   x 
            x  N            5        -0.318000  -0.002000   0.702000   x 
            x  N            6        -0.320000  -0.273000   0.430000   x 
            x  N            7        -0.043000  -0.655000   0.435000   x 
            x  N            8         0.002000  -0.316000   0.702000   x 
            x  N            9         0.273000  -0.047000   0.430000   x 
            x  N           10         0.612000   0.655000   0.935000   x 
            x  N           11         0.318000   0.316000   1.202000   x 
            x  N           12         0.320000   0.047000   0.930000   x 
            x  N           13         0.043000  -0.612000   0.935000   x 
            x  N           14        -0.002000  -0.318000   1.202000   x 
            x  N           15        -0.273000  -0.320000   0.930000   x 
            x  N           16        -0.655000  -0.043000   0.935000   x 
            x  N           17        -0.316000   0.002000   1.202000   x 
            x  N           18        -0.047000   0.273000   0.930000   x 
            x  N           19         0.333333   0.666667   0.600000   x 
            x  N           20         0.666667   0.333333   1.100000   x 
            x  Si           1         0.082000   0.514000   0.655000   x 
            x  Si           2         0.255000   0.169000   0.450000   x 
            x  Si           3        -0.514000  -0.432000   0.655000   x 
            x  Si           4        -0.169000   0.086000   0.450000   x 
            x  Si           5         0.432000  -0.082000   0.655000   x 
            x  Si           6        -0.086000  -0.255000   0.450000   x 
            x  Si           7         0.514000   0.082000   1.155000   x 
            x  Si           8         0.169000   0.255000   0.950000   x 
            x  Si           9        -0.432000  -0.514000   1.155000   x 
            x  Si          10         0.086000  -0.169000   0.950000   x 
            x  Si          11        -0.082000   0.432000   1.155000   x 
            x  Si          12        -0.255000  -0.086000   0.950000   x 
            xxxxxxxxxxxxxxxxxxxxxxxxxxxxxxxxxxxxxxxxxxxxxxxxxxxxxxxxxxxx
 
 
                         No user defined ionic velocities
 
                           -------------------------------
                                   Details of Species
                           -------------------------------
 
                               Mass of species in AMU
                                    N   14.0070000
                                    Si   28.0849991
 
                          Electric Quadrupole Moment (Barn)
                                    N    0.0204400 Isotope 14
                                    Si    1.0000000 No Isotope Defined
 
                          Files used for pseudopotentials:
                                    N 2|1.1|12|16|19|20UU:21UU(qc=7)[]
                                    Si 3|1.8|3.6|5|7|30UU:31UU:32UU[]
 
                           -------------------------------
                              k-Points For BZ Sampling
                           -------------------------------
                       MP grid size for SCF calculation is  4  4  4
                            with an offset of   0.125  0.125  0.000
                       Number of kpoints used =            10
 
                           -------------------------------
                               Symmetry and Constraints
                           -------------------------------
 
                      Maximum deviation from symmetry = 0.473355E-14     ANG
 
                      Number of symmetry operations   =           6
         There are no ionic constraints specified or generated for this cell
                      Point group of crystal =    18: C3v, 3m, 3 m
                      Space group of crystal =   159: P31c, P 3 -2c
 
             Set iprint > 1 for details on symmetry rotations/translations
 
                         Centre of mass is NOT constrained
 
                         Number of cell constraints= 4
                         Cell constraints are:  1 1 3 0 0 0
 
                         External pressure/stress (GPa)
                          0.00000   0.00000   0.00000
                                    0.00000   0.00000
                                              0.00000
 
+---------------- MEMORY AND SCRATCH DISK ESTIMATES PER PROCESS --------------+
|                                                     Memory          Disk    |
| Baseline code, static data and system overhead        0.0 MB         0.0 MB |
| BLAS internal memory storage                          0.0 MB         0.0 MB |
| Model and support data                              692.6 MB         0.0 MB |
| Electronic energy minimisation requirements         318.0 MB         0.0 MB |
| Force calculation requirements                       33.8 MB         0.0 MB |
| Stress calculation requirements                      36.8 MB         0.0 MB |
|                                               ----------------------------- |
| Approx. total storage required per process         1010.6 MB         0.0 MB |
|                                                                             |
| Requirements will fluctuate during execution and may exceed these estimates |
+-----------------------------------------------------------------------------+
Calculating finite basis set correction with  3 cut-off energies.
Calculating total energy with cut-off of  540.000 eV.
Calculating approximate eigenstates for fixed initial Hamiltonian
Cut-off for approx. calculation is   89.988 eV
Improving approx. states at cut-off of  270.011 eV
Resetting cut-off to  540.022 eV
------------------------------------------------------------------------ <-- SCF
SCF loop      Energy           Fermi           Energy gain       Timer   <-- SCF
                               energy          per atom          (sec)   <-- SCF
------------------------------------------------------------------------ <-- SCF
Initial  -6.77880759E+003  0.00000000E+000                        47.27  <-- SCF
      1  -7.44334745E+003  8.48634341E+000   2.07668706E+001      81.36  <-- SCF
      2  -7.44510012E+003  8.48681100E+000   5.47711681E-002     119.41  <-- SCF
      3  -7.40840015E+003  1.00882768E+001  -1.14687414E+000     148.20  <-- SCF
      4  -7.40724577E+003  9.86021866E+000  -3.60745984E-002     189.03  <-- SCF
      5  -7.40706622E+003  9.90887734E+000  -5.61070731E-003     220.69  <-- SCF
      6  -7.40707515E+003  9.90999572E+000   2.79109782E-004     254.31  <-- SCF
      7  -7.40708038E+003  9.92470164E+000   1.63366781E-004     282.86  <-- SCF
      8  -7.40708216E+003  9.93222355E+000   5.56578607E-005     313.50  <-- SCF
      9  -7.40708257E+003  9.93481223E+000   1.28412169E-005     339.69  <-- SCF
     10  -7.40708263E+003  9.93551784E+000   1.89967017E-006     360.95  <-- SCF
     11  -7.40708264E+003  9.93563432E+000   2.28449310E-007     379.83  <-- SCF
     12  -7.40708264E+003  9.93563046E+000   1.75339079E-008     399.88  <-- SCF
------------------------------------------------------------------------ <-- SCF
 
Final energy, E             =  -7407.031012855     eV
Final free energy (E-TS)    =  -7407.082642637     eV
(energies not corrected for finite basis set)
 
NB est. 0K energy (E-0.5TS)      =  -7407.056827746     eV
 
Calculating total energy with cut-off of  545.000 eV.
------------------------------------------------------------------------ <-- SCF
SCF loop      Energy           Fermi           Energy gain       Timer   <-- SCF
                               energy          per atom          (sec)   <-- SCF
------------------------------------------------------------------------ <-- SCF
Initial  -7.40703156E+003  0.00000000E+000                       405.39  <-- SCF
      1  -7.40720049E+003  9.93477457E+000   5.27918038E-003     440.05  <-- SCF
      2  -7.40720050E+003  9.93477463E+000   2.96245086E-007     459.12  <-- SCF
      3  -7.40720054E+003  9.93546876E+000   1.17485671E-006     477.66  <-- SCF
      4  -7.40720055E+003  9.93548651E+000   3.94027479E-007     496.47  <-- SCF
      5  -7.40720055E+003  9.93538814E+000   2.10034506E-008     514.91  <-- SCF
------------------------------------------------------------------------ <-- SCF
 
Final energy, E             =  -7407.148956463     eV
Final free energy (E-TS)    =  -7407.200552083     eV
(energies not corrected for finite basis set)
 
NB est. 0K energy (E-0.5TS)      =  -7407.174754273     eV
 
Calculating total energy with cut-off of  550.000 eV.
------------------------------------------------------------------------ <-- SCF
SCF loop      Energy           Fermi           Energy gain       Timer   <-- SCF
                               energy          per atom          (sec)   <-- SCF
------------------------------------------------------------------------ <-- SCF
Initial  -7.40714950E+003  0.00000000E+000                       520.33  <-- SCF
      1  -7.40730821E+003  9.93462010E+000   4.95967899E-003     555.30  <-- SCF
      2  -7.40730822E+003  9.93462014E+000   2.58523078E-007     575.17  <-- SCF
      3  -7.40730826E+003  9.93530138E+000   1.13754199E-006     593.52  <-- SCF
      4  -7.40730827E+003  9.93528540E+000   3.58962563E-007     612.06  <-- SCF
      5  -7.40730827E+003  9.93519786E+000   2.56157797E-008     630.47  <-- SCF
------------------------------------------------------------------------ <-- SCF
 
Final energy, E             =  -7407.256708324     eV
Final free energy (E-TS)    =  -7407.308267904     eV
(energies not corrected for finite basis set)
 
NB est. 0K energy (E-0.5TS)      =  -7407.282488114     eV
 
 For future reference: finite basis dEtot/dlog(Ecut) =     -12.198770eV
 Total energy corrected for finite basis set =   -7407.305975 eV
 
+---------------- MEMORY AND SCRATCH DISK ESTIMATES PER PROCESS --------------+
|                                                     Memory          Disk    |
| Model and support data                              694.6 MB         0.0 MB |
| Electronic energy minimisation requirements         318.0 MB         0.0 MB |
| Geometry minimisation requirements                  442.9 MB         0.0 MB |
|                                               ----------------------------- |
| Approx. total storage required per process         1455.4 MB         0.0 MB |
|                                                                             |
| Requirements will fluctuate during execution and may exceed these estimates |
+-----------------------------------------------------------------------------+
 
 
 ******************************** Symmetrised Forces ********************************
 *                                                                                  *
 *                           Cartesian components (eV/A)                            *
 * -------------------------------------------------------------------------------- *
 *                         x                    y                    z              *
 *                                                                                  *
 * N               1    -34.52325           -153.46287              2.51233         *
 * N               2      0.18797             -0.24642             -0.25529         *
 * N               3    118.24618           -108.16974             -2.99537         *
 * N               4    150.16437             46.83342              2.51233         *
 * N               5      0.11942              0.28599             -0.25529         *
 * N               6     34.55466            156.48906             -2.99537         *
 * N               7   -115.64111            106.62945              2.51233         *
 * N               8     -0.30738             -0.03957             -0.25529         *
 * N               9   -152.80083            -48.31932             -2.99537         *
 * N              10   -150.16437             46.83342              2.51233         *
 * N              11     -0.11942              0.28599             -0.25529         *
 * N              12    -34.55466            156.48906             -2.99537         *
 * N              13    115.64111            106.62945              2.51233         *
 * N              14      0.30738             -0.03957             -0.25529         *
 * N              15    152.80083            -48.31932             -2.99537         *
 * N              16     34.52325           -153.46287              2.51233         *
 * N              17     -0.18797             -0.24642             -0.25529         *
 * N              18   -118.24618           -108.16974             -2.99537         *
 * N              19     -0.00000              0.00000             -1.25240         *
 * N              20      0.00000             -0.00000             -1.25240         *
 * Si              1      4.10965              7.18093              0.30327         *
 * Si              2     -4.67853              5.42666              0.85253         *
 * Si              3     -8.27370             -0.03140              0.30327         *
 * Si              4     -2.36036             -6.76505              0.85253         *
 * Si              5      4.16404             -7.14953              0.30327         *
 * Si              6      7.03889              1.33839              0.85253         *
 * Si              7      8.27370             -0.03140              0.30327         *
 * Si              8      2.36036             -6.76505              0.85253         *
 * Si              9     -4.16404             -7.14953              0.30327         *
 * Si             10     -7.03889              1.33839              0.85253         *
 * Si             11     -4.10965              7.18093              0.30327         *
 * Si             12      4.67853              5.42666              0.85253         *
 *                                                                                  *
 ************************************************************************************
 
 *********** Symmetrised Stress Tensor ***********
 *                                               *
 *          Cartesian components (GPa)           *
 * --------------------------------------------- *
 *             x             y             z     *
 *                                               *
 *  x   -267.406781     -0.000000     -0.000000  *
 *  y     -0.000000   -267.406781      0.000000  *
 *  z     -0.000000      0.000000    -43.698979  *
 *                                               *
 *  Pressure:  192.8375                          *
 *                                               *
 *************************************************
 EXP precond LBFGS => estimated nearest neighbor distance :  1.728       A
 EXP precond LBFGS => estimated cutoff distance :  3.456       A
 doing test perturbation to get energy scale for EXP preconditioner
 
                           -------------------------------
                                      Unit Cell
                           -------------------------------
        Real Lattice(A)              Reciprocal Lattice(1/A)
     6.7134289    -3.8760000     0.0000000        0.935912985   0.000000000   0.000000000
     0.0000000     7.7520000     0.0000000        0.467956492   0.810524420   0.000000000
     0.0000000     0.0000000     5.6220000        0.000000000   0.000000000   1.117606778
 
                       Lattice parameters(A)       Cell Angles
                    a =      7.752000          alpha =   90.000000
                    b =      7.752000          beta  =   90.000000
                    c =      5.622000          gamma =  120.000000
 
                Current cell volume =           292.582941 A**3
                            density =             2.109351 amu/A**3
                                    =             3.502659 g/cm^3
 
                           -------------------------------
                                     Cell Contents
                           -------------------------------
 
            xxxxxxxxxxxxxxxxxxxxxxxxxxxxxxxxxxxxxxxxxxxxxxxxxxxxxxxxxxxxxxxxx
            x  Element         Atom        Fractional coordinates of atoms  x
            x                 Number           u          v          w      x
            x---------------------------------------------------------------x
            x  N                 1         0.654981   0.612560   0.437122   x
            x  N                 2         0.315959   0.317292   0.703492   x
            x  N                 3         0.046431   0.319302   0.432110   x
            x  N                 4         0.387440   0.042421   0.437122   x
            x  N                 5         0.682708   0.998667   0.703492   x
            x  N                 6         0.680698   0.727129   0.432110   x
            x  N                 7         0.957579   0.345019   0.437122   x
            x  N                 8         0.001333   0.684041   0.703492   x
            x  N                 9         0.272871   0.953569   0.432110   x
            x  N                10         0.612560   0.654981   0.937122   x
            x  N                11         0.317292   0.315959   0.203492   x
            x  N                12         0.319302   0.046431   0.932110   x
            x  N                13         0.042421   0.387440   0.937122   x
            x  N                14         0.998667   0.682708   0.203492   x
            x  N                15         0.727129   0.680698   0.932110   x
            x  N                16         0.345019   0.957579   0.937122   x
            x  N                17         0.684041   0.001333   0.203492   x
            x  N                18         0.953569   0.272871   0.932110   x
            x  N                19         0.333333   0.666667   0.601177   x
            x  N                20         0.666667   0.333333   0.101177   x
            x  Si                1         0.081495   0.513694   0.656349   x
            x  Si                2         0.254167   0.168670   0.452158   x
            x  Si                3         0.486306   0.567801   0.656349   x
            x  Si                4         0.831330   0.085497   0.452158   x
            x  Si                5         0.432199   0.918505   0.656349   x
            x  Si                6         0.914503   0.745833   0.452158   x
            x  Si                7         0.513694   0.081495   0.156349   x
            x  Si                8         0.168670   0.254167   0.952158   x
            x  Si                9         0.567801   0.486306   0.156349   x
            x  Si               10         0.085497   0.831330   0.952158   x
            x  Si               11         0.918505   0.432199   0.156349   x
            x  Si               12         0.745833   0.914503   0.952158   x
            xxxxxxxxxxxxxxxxxxxxxxxxxxxxxxxxxxxxxxxxxxxxxxxxxxxxxxxxxxxxxxxxx
 
 
------------------------------------------------------------------------ <-- SCF
SCF loop      Energy           Fermi           Energy gain       Timer   <-- SCF
                               energy          per atom          (sec)   <-- SCF
------------------------------------------------------------------------ <-- SCF
Initial  -7.40035976E+003  0.00000000E+000                       708.11  <-- SCF
      1  -7.40366262E+003  9.96385135E+000   1.03214256E-001     743.36  <-- SCF
      2  -7.40369133E+003  9.96336958E+000   8.97187421E-004     778.81  <-- SCF
      3  -7.40277516E+003  9.94262405E+000  -2.86302701E-002     810.55  <-- SCF
      4  -7.40268678E+003  9.95796618E+000  -2.76189512E-003     846.53  <-- SCF
      5  -7.40268430E+003  9.95741848E+000  -7.74116886E-005     879.66  <-- SCF
      6  -7.40268416E+003  9.96092321E+000  -4.47979201E-006     913.12  <-- SCF
      7  -7.40268417E+003  9.96161029E+000   3.87881848E-007     934.38  <-- SCF
      8  -7.40268418E+003  9.96197057E+000   4.02578076E-007     954.50  <-- SCF
------------------------------------------------------------------------ <-- SCF
 
Final energy, E             =  -7402.635243599     eV
Final free energy (E-TS)    =  -7402.684183331     eV
(energies not corrected for finite basis set)
 
NB est. 0K energy (E-0.5TS)      =  -7402.659713465     eV
 
 
 ******************************** Symmetrised Forces ********************************
 *                                                                                  *
 *                           Cartesian components (eV/A)                            *
 * -------------------------------------------------------------------------------- *
 *                         x                    y                    z              *
 *                                                                                  *
 * N               1    -36.51708           -157.77797              2.55653         *
 * N               2      0.17817             -0.16472             -0.14479         *
 * N               3    120.98193           -112.18640             -3.16077         *
 * N               4    154.89827             47.26427              2.55653         *
 * N               5      0.05356              0.23665             -0.14479         *
 * N               6     36.66530            160.86662             -3.16077         *
 * N               7   -118.38119            110.51370              2.55653         *
 * N               8     -0.23173             -0.07194             -0.14479         *
 * N               9   -157.64723            -48.68022             -3.16077         *
 * N              10   -154.89827             47.26427              2.55653         *
 * N              11     -0.05356              0.23665             -0.14479         *
 * N              12    -36.66530            160.86662             -3.16077         *
 * N              13    118.38119            110.51370              2.55653         *
 * N              14      0.23173             -0.07194             -0.14479         *
 * N              15    157.64723            -48.68022             -3.16077         *
 * N              16     36.51708           -157.77797              2.55653         *
 * N              17     -0.17817             -0.16472             -0.14479         *
 * N              18   -120.98193           -112.18640             -3.16077         *
 * N              19     -0.00000             -0.00000             -1.24828         *
 * N              20      0.00000              0.00000             -1.24828         *
 * Si              1      4.24554              7.39912              0.47313         *
 * Si              2     -4.67501              5.49573              0.69200         *
 * Si              3     -8.53060             -0.02281              0.47313         *
 * Si              4     -2.42194             -6.79654              0.69200         *
 * Si              5      4.28505             -7.37631              0.47313         *
 * Si              6      7.09695              1.30081              0.69200         *
 * Si              7      8.53060             -0.02281              0.47313         *
 * Si              8      2.42194             -6.79654              0.69200         *
 * Si              9     -4.28505             -7.37631              0.47313         *
 * Si             10     -7.09695              1.30081              0.69200         *
 * Si             11     -4.24554              7.39912              0.47313         *
 * Si             12      4.67501              5.49573              0.69200         *
 *                                                                                  *
 ************************************************************************************
 
 *********** Symmetrised Stress Tensor ***********
 *                                               *
 *          Cartesian components (GPa)           *
 * --------------------------------------------- *
 *             x             y             z     *
 *                                               *
 *  x   -272.499466     -0.000000      0.000000  *
 *  y     -0.000000   -272.499466      0.000000  *
 *  z      0.000000      0.000000    -44.829137  *
 *                                               *
 *  Pressure:  196.6094                          *
 *                                               *
 *************************************************
 EXP precond LBFGS => estimated parameter mu :  20.41       eV/A**2
 LBFGS: finished iteration     0 with enthalpy= -7.40730597E+003 eV
  
 +-----------+-----------------+-----------------+------------+-----+ <-- LBFGS
 | Parameter |      value      |    tolerance    |    units   | OK? | <-- LBFGS
 +-----------+-----------------+-----------------+------------+-----+ <-- LBFGS
 |  dE/ion   |   0.000000E+000 |   1.000000E-005 |         eV | No  | <-- LBFGS
 |  |F|max   |   1.650224E+002 |   3.000000E-002 |       eV/A | No  | <-- LBFGS
 |  |dR|max  |   1.872502E-015 |   1.000000E-003 |          A | No  | <-- LBFGS
 |   Smax    |   2.724995E+002 |   5.000000E-002 |        GPa | No  | <-- LBFGS
 +-----------+-----------------+-----------------+------------+-----+ <-- LBFGS
  

================================================================================
 Starting LBFGS iteration          1 ...
================================================================================
 Info: POPN_WRITE modified from MINIMAL to summary
  
 +------------+-------------+-------------+-----------------+ <-- min LBFGS
 |    Step    |   lambda    |   F.delta'  |    enthalpy     | <-- min LBFGS
 +------------+-------------+-------------+-----------------+ <-- min LBFGS
 |  previous  |    0.000000 |  118.314444 |    -7407.305975 | <-- min LBFGS
 +------------+-------------+-------------+-----------------+ <-- min LBFGS
  

--------------------------------------------------------------------------------
 LBFGS: starting iteration         1 with trial guess (lambda=  0.191459)
--------------------------------------------------------------------------------
 
+---------------- MEMORY AND SCRATCH DISK ESTIMATES PER PROCESS --------------+
|                                                     Memory          Disk    |
| Model and support data                              797.4 MB         0.0 MB |
| Electronic energy minimisation requirements         341.9 MB         0.0 MB |
| Geometry minimisation requirements                  476.6 MB         0.0 MB |
|                                               ----------------------------- |
| Approx. total storage required per process         1615.9 MB         0.0 MB |
|                                                                             |
| Requirements will fluctuate during execution and may exceed these estimates |
+-----------------------------------------------------------------------------+
 
 
                           -------------------------------
                                      Unit Cell
                           -------------------------------
        Real Lattice(A)              Reciprocal Lattice(1/A)
     6.9425694    -4.0082943     0.0000000        0.905023048  -0.000000000  -0.000000000
     0.0000000     8.0165886    -0.0000000        0.452511524   0.783772951   0.000000000
     0.0000000    -0.0000000     5.6533579        0.000000000   0.000000000   1.111407664
 
                       Lattice parameters(A)       Cell Angles
                    a =      8.016589          alpha =   90.000000
                    b =      8.016589          beta  =   90.000000
                    c =      5.653358          gamma =  120.000000
 
                Current cell volume =           314.641720 A**3
                            density =             1.961469 amu/A**3
                                    =             3.257096 g/cm^3
 
                           -------------------------------
                                     Cell Contents
                           -------------------------------
 
            xxxxxxxxxxxxxxxxxxxxxxxxxxxxxxxxxxxxxxxxxxxxxxxxxxxxxxxxxxxxxxxxx
            x  Element         Atom        Fractional coordinates of atoms  x
            x                 Number           u          v          w      x
            x---------------------------------------------------------------x
            x  N                 1         0.651162   0.597639   0.435267   x
            x  N                 2         0.315405   0.317712   0.701977   x
            x  N                 3         0.059674   0.316872   0.429616   x
            x  N                 4        -0.597639   0.053523   0.435267   x
            x  N                 5        -0.317712  -0.002307   0.701977   x
            x  N                 6        -0.316872  -0.257198   0.429616   x
            x  N                 7        -0.053523  -0.651162   0.435267   x
            x  N                 8         0.002307  -0.315405   0.701977   x
            x  N                 9         0.257198  -0.059674   0.429616   x
            x  N                10         0.597639   0.651162   0.935267   x
            x  N                11         0.317712   0.315405   1.201977   x
            x  N                12         0.316872   0.059674   0.929616   x
            x  N                13         0.053523  -0.597639   0.935267   x
            x  N                14        -0.002307  -0.317712   1.201977   x
            x  N                15        -0.257198  -0.316872   0.929616   x
            x  N                16        -0.651162  -0.053523   0.935267   x
            x  N                17        -0.315405   0.002307   1.201977   x
            x  N                18        -0.059674   0.257198   0.929616   x
            x  N                19         0.333333   0.666667   0.599624   x
            x  N                20         0.666667   0.333333   1.099624   x
            x  Si                1         0.083205   0.516853   0.655042   x
            x  Si                2         0.253925   0.168854   0.450224   x
            x  Si                3        -0.516853  -0.433647   0.655042   x
            x  Si                4        -0.168854   0.085072   0.450224   x
            x  Si                5         0.433647  -0.083205   0.655042   x
            x  Si                6        -0.085072  -0.253925   0.450224   x
            x  Si                7         0.516853   0.083205   1.155042   x
            x  Si                8         0.168854   0.253925   0.950224   x
            x  Si                9        -0.433647  -0.516853   1.155042   x
            x  Si               10         0.085072  -0.168854   0.950224   x
            x  Si               11        -0.083205   0.433647   1.155042   x
            x  Si               12        -0.253925  -0.085072   0.950224   x
            xxxxxxxxxxxxxxxxxxxxxxxxxxxxxxxxxxxxxxxxxxxxxxxxxxxxxxxxxxxxxxxxx
 
 
------------------------------------------------------------------------ <-- SCF
SCF loop      Energy           Fermi           Energy gain       Timer   <-- SCF
                               energy          per atom          (sec)   <-- SCF
------------------------------------------------------------------------ <-- SCF
Initial  -7.38579708E+003  0.00000000E+000                      1033.92  <-- SCF
      1  -7.57415430E+003  8.62448030E+000   5.88616313E+000    1070.75  <-- SCF
      2  -7.58837559E+003  8.79709851E+000   4.44415330E-001    1108.86  <-- SCF
      3  -7.54244661E+003  8.28332227E+000  -1.43528079E+000    1149.78  <-- SCF
      4  -7.53642343E+003  8.47748693E+000  -1.88224201E-001    1190.91  <-- SCF
      5  -7.53601494E+003  8.40509265E+000  -1.27653049E-002    1224.56  <-- SCF
      6  -7.53602059E+003  8.40351644E+000   1.76475396E-004    1263.55  <-- SCF
      7  -7.53602119E+003  8.40014779E+000   1.86986583E-005    1298.81  <-- SCF
      8  -7.53602134E+003  8.40159500E+000   4.91672855E-006    1323.86  <-- SCF
      9  -7.53602145E+003  8.40149039E+000   3.18243624E-006    1346.52  <-- SCF
     10  -7.53602145E+003  8.40121169E+000   2.56111394E-007    1367.61  <-- SCF
     11  -7.53602146E+003  8.40120226E+000   4.14335745E-008    1388.45  <-- SCF
------------------------------------------------------------------------ <-- SCF
 
Final energy, E             =  -7536.007192728     eV
Final free energy (E-TS)    =  -7536.021455410     eV
(energies not corrected for finite basis set)
 
NB est. 0K energy (E-0.5TS)      =  -7536.014324069     eV
 
 
 ******************************** Symmetrised Forces ********************************
 *                                                                                  *
 *                           Cartesian components (eV/A)                            *
 * -------------------------------------------------------------------------------- *
 *                         x                    y                    z              *
 *                                                                                  *
 * N               1     -9.06531            -35.41719             -0.39092         *
 * N               2      0.83404              0.66865             -0.46654         *
 * N               3     24.95579            -26.04925              0.49419         *
 * N               4     35.20484              9.85780             -0.39092         *
 * N               5     -0.99609              0.38797             -0.46654         *
 * N               6     10.08142             34.63698              0.49419         *
 * N               7    -26.13953             25.55939             -0.39092         *
 * N               8      0.16205             -1.05662             -0.46654         *
 * N               9    -35.03721             -8.58772              0.49419         *
 * N              10    -35.20484              9.85780             -0.39092         *
 * N              11      0.99609              0.38797             -0.46654         *
 * N              12    -10.08142             34.63698              0.49419         *
 * N              13     26.13953             25.55939             -0.39092         *
 * N              14     -0.16205             -1.05662             -0.46654         *
 * N              15     35.03721             -8.58772              0.49419         *
 * N              16      9.06531            -35.41719             -0.39092         *
 * N              17     -0.83404              0.66865             -0.46654         *
 * N              18    -24.95579            -26.04925              0.49419         *
 * N              19      0.00000             -0.00000             -0.12871         *
 * N              20      0.00000             -0.00000             -0.12871         *
 * Si              1      2.68995              3.67246             -0.51911         *
 * Si              2     -2.39608              2.04810              0.92529         *
 * Si              3     -4.52542              0.49334             -0.51911         *
 * Si              4     -0.57567             -3.09912              0.92529         *
 * Si              5      1.83547             -4.16580             -0.51911         *
 * Si              6      2.97175              1.05102              0.92529         *
 * Si              7      4.52542              0.49334             -0.51911         *
 * Si              8      0.57567             -3.09912              0.92529         *
 * Si              9     -1.83547             -4.16580             -0.51911         *
 * Si             10     -2.97175              1.05102              0.92529         *
 * Si             11     -2.68995              3.67246             -0.51911         *
 * Si             12      2.39608              2.04810              0.92529         *
 *                                                                                  *
 ************************************************************************************
 
 *********** Symmetrised Stress Tensor ***********
 *                                               *
 *          Cartesian components (GPa)           *
 * --------------------------------------------- *
 *             x             y             z     *
 *                                               *
 *  x    -76.125868     -0.000000      0.000000  *
 *  y     -0.000000    -76.125868      0.000000  *
 *  z      0.000000      0.000000    -11.592370  *
 *                                               *
 *  Pressure:   54.6147                          *
 *                                               *
 *************************************************
  
 +------------+-------------+-------------+-----------------+ <-- min LBFGS
 |    Step    |   lambda    |   F.delta'  |    enthalpy     | <-- min LBFGS
 +------------+-------------+-------------+-----------------+ <-- min LBFGS
 |  previous  |    0.000000 |  118.314444 |    -7407.305975 | <-- min LBFGS
 | trial step |    0.191459 |   29.090085 |    -7536.023752 | <-- min LBFGS
 +------------+-------------+-------------+-----------------+ <-- min LBFGS
  
 LBFGS: finished iteration     1 with enthalpy= -7.53602375E+003 eV
  
 +-----------+-----------------+-----------------+------------+-----+ <-- LBFGS
 | Parameter |      value      |    tolerance    |    units   | OK? | <-- LBFGS
 +-----------+-----------------+-----------------+------------+-----+ <-- LBFGS
 |  dE/ion   |   4.022431E+000 |   1.000000E-005 |         eV | No  | <-- LBFGS
 |  |F|max   |   3.656105E+001 |   3.000000E-002 |       eV/A | No  | <-- LBFGS
 |  |dR|max  |   1.162103E-001 |   1.000000E-003 |          A | No  | <-- LBFGS
 |   Smax    |   7.612587E+001 |   5.000000E-002 |        GPa | No  | <-- LBFGS
 +-----------+-----------------+-----------------+------------+-----+ <-- LBFGS
  

================================================================================
 Starting LBFGS iteration          2 ...
================================================================================
 Info: POPN_WRITE modified from MINIMAL to summary
  
 +------------+-------------+-------------+-----------------+ <-- min LBFGS
 |    Step    |   lambda    |   F.delta'  |    enthalpy     | <-- min LBFGS
 +------------+-------------+-------------+-----------------+ <-- min LBFGS
 |  previous  |    0.000000 |   19.135766 |    -7536.023752 | <-- min LBFGS
 +------------+-------------+-------------+-----------------+ <-- min LBFGS
  

--------------------------------------------------------------------------------
 LBFGS: starting iteration         2 with trial guess (lambda=  1.000000)
--------------------------------------------------------------------------------
 
+---------------- MEMORY AND SCRATCH DISK ESTIMATES PER PROCESS --------------+
|                                                     Memory          Disk    |
| Model and support data                              809.2 MB         0.0 MB |
| Electronic energy minimisation requirements         359.9 MB         0.0 MB |
| Geometry minimisation requirements                  501.1 MB         0.0 MB |
|                                               ----------------------------- |
| Approx. total storage required per process         1670.2 MB         0.0 MB |
|                                                                             |
| Requirements will fluctuate during execution and may exceed these estimates |
+-----------------------------------------------------------------------------+
 
 
                           -------------------------------
                                      Unit Cell
                           -------------------------------
        Real Lattice(A)              Reciprocal Lattice(1/A)
     7.1029852    -4.1009104     0.0000000        0.884583747  -0.000000000  -0.000000000
     0.0000000     8.2018209    -0.0000000        0.442291874   0.766071997   0.000000000
     0.0000000    -0.0000000     5.6726297       -0.000000000   0.000000000   1.107631842
 
                       Lattice parameters(A)       Cell Angles
                    a =      8.201821          alpha =   90.000000
                    b =      8.201821          beta  =   90.000000
                    c =      5.672630          gamma =  120.000000
 
                Current cell volume =           330.472731 A**3
                            density =             1.867507 amu/A**3
                                    =             3.101068 g/cm^3
 
                           -------------------------------
                                     Cell Contents
                           -------------------------------
 
            xxxxxxxxxxxxxxxxxxxxxxxxxxxxxxxxxxxxxxxxxxxxxxxxxxxxxxxxxxxxxxxxx
            x  Element         Atom        Fractional coordinates of atoms  x
            x                 Number           u          v          w      x
            x---------------------------------------------------------------x
            x  N                 1         0.648999   0.591624   0.434259   x
            x  N                 2         0.315509   0.318820   0.701404   x
            x  N                 3         0.059741   0.313838   0.431064   x
            x  N                 4        -0.591624   0.057375   0.434259   x
            x  N                 5        -0.318820  -0.003311   0.701404   x
            x  N                 6        -0.313838  -0.254097   0.431064   x
            x  N                 7        -0.057375  -0.648999   0.434259   x
            x  N                 8         0.003311  -0.315509   0.701404   x
            x  N                 9         0.254097  -0.059741   0.431064   x
            x  N                10         0.591624   0.648999   0.934259   x
            x  N                11         0.318820   0.315509   1.201404   x
            x  N                12         0.313838   0.059741   0.931064   x
            x  N                13         0.057375  -0.591624   0.934259   x
            x  N                14        -0.003311  -0.318820   1.201404   x
            x  N                15        -0.254097  -0.313838   0.931064   x
            x  N                16        -0.648999  -0.057375   0.934259   x
            x  N                17        -0.315509   0.003311   1.201404   x
            x  N                18        -0.059741   0.254097   0.931064   x
            x  N                19         0.333333   0.666667   0.599044   x
            x  N                20         0.666667   0.333333   1.099044   x
            x  Si                1         0.086238   0.522115   0.653657   x
            x  Si                2         0.251657   0.169481   0.451935   x
            x  Si                3        -0.522115  -0.435877   0.653657   x
            x  Si                4        -0.169481   0.082176   0.451935   x
            x  Si                5         0.435877  -0.086238   0.653657   x
            x  Si                6        -0.082176  -0.251657   0.451935   x
            x  Si                7         0.522115   0.086238   1.153657   x
            x  Si                8         0.169481   0.251657   0.951935   x
            x  Si                9        -0.435877  -0.522115   1.153657   x
            x  Si               10         0.082176  -0.169481   0.951935   x
            x  Si               11        -0.086238   0.435877   1.153657   x
            x  Si               12        -0.251657  -0.082176   0.951935   x
            xxxxxxxxxxxxxxxxxxxxxxxxxxxxxxxxxxxxxxxxxxxxxxxxxxxxxxxxxxxxxxxxx
 
 
------------------------------------------------------------------------ <-- SCF
SCF loop      Energy           Fermi           Energy gain       Timer   <-- SCF
                               energy          per atom          (sec)   <-- SCF
------------------------------------------------------------------------ <-- SCF
Initial  -7.53684072E+003  0.00000000E+000                      1482.48  <-- SCF
      1  -7.55949454E+003  7.90081730E+000   7.07931779E-001    1523.00  <-- SCF
      2  -7.55975933E+003  7.89783599E+000   8.27474710E-003    1563.66  <-- SCF
      3  -7.55376810E+003  7.54220832E+000  -1.87225794E-001    1605.95  <-- SCF
      4  -7.55305567E+003  7.70080400E+000  -2.22633908E-002    1640.22  <-- SCF
      5  -7.55292714E+003  7.68608307E+000  -4.01651156E-003    1678.66  <-- SCF
      6  -7.55292691E+003  7.68617335E+000  -7.41578704E-006    1724.14  <-- SCF
      7  -7.55292736E+003  7.68611656E+000   1.41856555E-005    1763.30  <-- SCF
      8  -7.55292752E+003  7.68747124E+000   5.09540836E-006    1788.39  <-- SCF
      9  -7.55292763E+003  7.68828728E+000   3.30684302E-006    1816.97  <-- SCF
     10  -7.55292764E+003  7.68790098E+000   1.89746203E-007    1841.45  <-- SCF
     11  -7.55292764E+003  7.68800223E+000   3.88547885E-008    1864.38  <-- SCF
------------------------------------------------------------------------ <-- SCF
 
Final energy, E             =  -7552.917496311     eV
Final free energy (E-TS)    =  -7552.927637738     eV
(energies not corrected for finite basis set)
 
NB est. 0K energy (E-0.5TS)      =  -7552.922567025     eV
 
 
 ******************************** Symmetrised Forces ********************************
 *                                                                                  *
 *                           Cartesian components (eV/A)                            *
 * -------------------------------------------------------------------------------- *
 *                         x                    y                    z              *
 *                                                                                  *
 * N               1     -6.37807            -20.30232             -0.63334         *
 * N               2      0.66246              0.73080             -0.21813         *
 * N               3     12.98046            -16.04476              0.91411         *
 * N               4     20.77136              4.62759             -0.63334         *
 * N               5     -0.96413              0.20831             -0.21813         *
 * N               6      7.40494             19.26378              0.91411         *
 * N               7    -14.39329             15.67473             -0.63334         *
 * N               8      0.30166             -0.93911             -0.21813         *
 * N               9    -20.38539             -3.21903              0.91411         *
 * N              10    -20.77136              4.62759             -0.63334         *
 * N              11      0.96413              0.20831             -0.21813         *
 * N              12     -7.40494             19.26378              0.91411         *
 * N              13     14.39329             15.67473             -0.63334         *
 * N              14     -0.30166             -0.93911             -0.21813         *
 * N              15     20.38539             -3.21903              0.91411         *
 * N              16      6.37807            -20.30232             -0.63334         *
 * N              17     -0.66246              0.73080             -0.21813         *
 * N              18    -12.98046            -16.04476              0.91411         *
 * N              19      0.00000             -0.00000             -0.05754         *
 * N              20     -0.00000              0.00000             -0.05754         *
 * Si              1      1.77657              2.38248             -0.66945         *
 * Si              2     -1.48723              1.07574              0.62599         *
 * Si              3     -2.95157              0.34732             -0.66945         *
 * Si              4     -0.18801             -1.82585              0.62599         *
 * Si              5      1.17500             -2.72979             -0.66945         *
 * Si              6      1.67524              0.75011              0.62599         *
 * Si              7      2.95157              0.34732             -0.66945         *
 * Si              8      0.18801             -1.82585              0.62599         *
 * Si              9     -1.17500             -2.72979             -0.66945         *
 * Si             10     -1.67524              0.75011              0.62599         *
 * Si             11     -1.77657              2.38248             -0.66945         *
 * Si             12      1.48723              1.07574              0.62599         *
 *                                                                                  *
 ************************************************************************************
 
 *********** Symmetrised Stress Tensor ***********
 *                                               *
 *          Cartesian components (GPa)           *
 * --------------------------------------------- *
 *             x             y             z     *
 *                                               *
 *  x    -39.347774     -0.000000      0.000000  *
 *  y     -0.000000    -39.347774      0.000000  *
 *  z      0.000000      0.000000     -2.752721  *
 *                                               *
 *  Pressure:   27.1494                          *
 *                                               *
 *************************************************
  
 +------------+-------------+-------------+-----------------+ <-- min LBFGS
 |    Step    |   lambda    |   F.delta'  |    enthalpy     | <-- min LBFGS
 +------------+-------------+-------------+-----------------+ <-- min LBFGS
 |  previous  |    0.000000 |   19.135766 |    -7536.023752 | <-- min LBFGS
 | trial step |    1.000000 |   11.248801 |    -7552.929506 | <-- min LBFGS
 +------------+-------------+-------------+-----------------+ <-- min LBFGS
  

--------------------------------------------------------------------------------
 LBFGS: improving iteration         2 with line minimization (lambda=  1.428415)
--------------------------------------------------------------------------------
 
+---------------- MEMORY AND SCRATCH DISK ESTIMATES PER PROCESS --------------+
|                                                     Memory          Disk    |
| Model and support data                              812.7 MB         0.0 MB |
| Electronic energy minimisation requirements         365.7 MB         0.0 MB |
| Geometry minimisation requirements                  509.1 MB         0.0 MB |
|                                               ----------------------------- |
| Approx. total storage required per process         1687.4 MB         0.0 MB |
|                                                                             |
| Requirements will fluctuate during execution and may exceed these estimates |
+-----------------------------------------------------------------------------+
 
 
                           -------------------------------
                                      Unit Cell
                           -------------------------------
        Real Lattice(A)              Reciprocal Lattice(1/A)
     7.1717098    -4.1405886     0.0000000        0.876107016  -0.000000000  -0.000000000
     0.0000000     8.2811772    -0.0000000        0.438053508   0.758730932   0.000000000
     0.0000000    -0.0000000     5.6808861        0.000000000   0.000000000   1.106022061
 
                       Lattice parameters(A)       Cell Angles
                    a =      8.281177          alpha =   90.000000
                    b =      8.281177          beta  =   90.000000
                    c =      5.680886          gamma =  120.000000
 
                Current cell volume =           337.388960 A**3
                            density =             1.829224 amu/A**3
                                    =             3.037498 g/cm^3
 
                           -------------------------------
                                     Cell Contents
                           -------------------------------
 
            xxxxxxxxxxxxxxxxxxxxxxxxxxxxxxxxxxxxxxxxxxxxxxxxxxxxxxxxxxxxxxxxx
            x  Element         Atom        Fractional coordinates of atoms  x
            x                 Number           u          v          w      x
            x---------------------------------------------------------------x
            x  N                 1         0.648072   0.589047   0.433828   x
            x  N                 2         0.315553   0.319295   0.701159   x
            x  N                 3         0.059769   0.312538   0.431684   x
            x  N                 4        -0.589047   0.059025   0.433828   x
            x  N                 5        -0.319295  -0.003742   0.701159   x
            x  N                 6        -0.312538  -0.252768   0.431684   x
            x  N                 7        -0.059025  -0.648072   0.433828   x
            x  N                 8         0.003742  -0.315553   0.701159   x
            x  N                 9         0.252768  -0.059769   0.431684   x
            x  N                10         0.589047   0.648072   0.933828   x
            x  N                11         0.319295   0.315553   1.201159   x
            x  N                12         0.312538   0.059769   0.931684   x
            x  N                13         0.059025  -0.589047   0.933828   x
            x  N                14        -0.003742  -0.319295   1.201159   x
            x  N                15        -0.252768  -0.312538   0.931684   x
            x  N                16        -0.648072  -0.059025   0.933828   x
            x  N                17        -0.315553   0.003742   1.201159   x
            x  N                18        -0.059769   0.252768   0.931684   x
            x  N                19         0.333333   0.666667   0.598796   x
            x  N                20         0.666667   0.333333   1.098796   x
            x  Si                1         0.087537   0.524370   0.653064   x
            x  Si                2         0.250685   0.169750   0.452667   x
            x  Si                3        -0.524370  -0.436833   0.653064   x
            x  Si                4        -0.169750   0.080935   0.452667   x
            x  Si                5         0.436833  -0.087537   0.653064   x
            x  Si                6        -0.080935  -0.250685   0.452667   x
            x  Si                7         0.524370   0.087537   1.153064   x
            x  Si                8         0.169750   0.250685   0.952667   x
            x  Si                9        -0.436833  -0.524370   1.153064   x
            x  Si               10         0.080935  -0.169750   0.952667   x
            x  Si               11        -0.087537   0.436833   1.153064   x
            x  Si               12        -0.250685  -0.080935   0.952667   x
            xxxxxxxxxxxxxxxxxxxxxxxxxxxxxxxxxxxxxxxxxxxxxxxxxxxxxxxxxxxxxxxxx
 
 
------------------------------------------------------------------------ <-- SCF
SCF loop      Energy           Fermi           Energy gain       Timer   <-- SCF
                               energy          per atom          (sec)   <-- SCF
------------------------------------------------------------------------ <-- SCF
Initial  -7.55463340E+003  0.00000000E+000                      1963.52  <-- SCF
      1  -7.55897792E+003  7.48675054E+000   1.35766176E-001    2008.36  <-- SCF
      2  -7.55902063E+003  7.48617670E+000   1.33461848E-003    2053.09  <-- SCF
      3  -7.55787230E+003  7.32607704E+000  -3.58853234E-002    2090.11  <-- SCF
      4  -7.55773322E+003  7.40179087E+000  -4.34633496E-003    2126.66  <-- SCF
      5  -7.55770739E+003  7.39159462E+000  -8.07212727E-004    2164.19  <-- SCF
      6  -7.55770730E+003  7.39224625E+000  -2.74845532E-006    2207.16  <-- SCF
      7  -7.55770738E+003  7.39163987E+000   2.51211754E-006    2236.47  <-- SCF
      8  -7.55770741E+003  7.39216379E+000   1.06860411E-006    2261.22  <-- SCF
      9  -7.55770743E+003  7.39254661E+000   6.69385510E-007    2286.53  <-- SCF
     10  -7.55770743E+003  7.39238273E+000   3.56731901E-008    2309.95  <-- SCF
     11  -7.55770743E+003  7.39236204E+000   1.37741008E-008    2333.16  <-- SCF
------------------------------------------------------------------------ <-- SCF
 
Final energy, E             =  -7557.697919401     eV
Final free energy (E-TS)    =  -7557.707434825     eV
(energies not corrected for finite basis set)
 
NB est. 0K energy (E-0.5TS)      =  -7557.702677113     eV
 
 
 ******************************** Symmetrised Forces ********************************
 *                                                                                  *
 *                           Cartesian components (eV/A)                            *
 * -------------------------------------------------------------------------------- *
 *                         x                    y                    z              *
 *                                                                                  *
 * N               1     -5.50887            -15.60663             -0.61978         *
 * N               2      0.57643              0.73952             -0.12633         *
 * N               3      9.32389            -12.86705              0.93430         *
 * N               4     16.27017              3.03249             -0.61978         *
 * N               5     -0.92866              0.12944             -0.12633         *
 * N               6      6.48125             14.50825              0.93430         *
 * N               7    -10.76130             12.57414             -0.61978         *
 * N               8      0.35223             -0.86896             -0.12633         *
 * N               9    -15.80514             -1.64120              0.93430         *
 * N              10    -16.27017              3.03249             -0.61978         *
 * N              11      0.92866              0.12944             -0.12633         *
 * N              12     -6.48125             14.50825              0.93430         *
 * N              13     10.76130             12.57414             -0.61978         *
 * N              14     -0.35223             -0.86896             -0.12633         *
 * N              15     15.80514             -1.64120              0.93430         *
 * N              16      5.50887            -15.60663             -0.61978         *
 * N              17     -0.57643              0.73952             -0.12633         *
 * N              18     -9.32389            -12.86705              0.93430         *
 * N              19      0.00000              0.00000             -0.03830         *
 * N              20     -0.00000             -0.00000             -0.03830         *
 * Si              1      1.40994              1.90195             -0.68430         *
 * Si              2     -1.15125              0.77192              0.50888         *
 * Si              3     -2.35210              0.27006             -0.68430         *
 * Si              4     -0.09288             -1.38298              0.50888         *
 * Si              5      0.94217             -2.17201             -0.68430         *
 * Si              6      1.24413              0.61105              0.50888         *
 * Si              7      2.35210              0.27006             -0.68430         *
 * Si              8      0.09288             -1.38298              0.50888         *
 * Si              9     -0.94217             -2.17201             -0.68430         *
 * Si             10     -1.24413              0.61105              0.50888         *
 * Si             11     -1.40994              1.90195             -0.68430         *
 * Si             12      1.15125              0.77192              0.50888         *
 *                                                                                  *
 ************************************************************************************
 
 *********** Symmetrised Stress Tensor ***********
 *                                               *
 *          Cartesian components (GPa)           *
 * --------------------------------------------- *
 *             x             y             z     *
 *                                               *
 *  x    -27.105635     -0.000000      0.000000  *
 *  y     -0.000000    -27.105635      0.000000  *
 *  z      0.000000      0.000000      0.192306  *
 *                                               *
 *  Pressure:   18.0063                          *
 *                                               *
 *************************************************
  
 +------------+-------------+-------------+-----------------+ <-- min LBFGS
 |    Step    |   lambda    |   F.delta'  |    enthalpy     | <-- min LBFGS
 +------------+-------------+-------------+-----------------+ <-- min LBFGS
 |  previous  |    0.000000 |   19.135766 |    -7536.023752 | <-- min LBFGS
 | trial step |    1.000000 |   11.248801 |    -7552.929506 | <-- min LBFGS
 |  line step |    1.428415 |    8.621390 |    -7557.706698 | <-- min LBFGS
 +------------+-------------+-------------+-----------------+ <-- min LBFGS
  

--------------------------------------------------------------------------------
 LBFGS: improving iteration         2 with quad minimization (lambda=  2.834185)
[...]
 |  previous  |    0.000000 |    1.171846 |    -7590.972999 | <-- min LBFGS
 +------------+-------------+-------------+-----------------+ <-- min LBFGS
  

--------------------------------------------------------------------------------
 LBFGS: starting iteration        10 with trial guess (lambda=  1.000000)
--------------------------------------------------------------------------------
 
                           -------------------------------
                                      Unit Cell
                           -------------------------------
        Real Lattice(A)              Reciprocal Lattice(1/A)
     7.0392603    -4.0641188    -0.0000000        0.892591703  -0.000000000   0.000000000
     0.0000000     8.1282376    -0.0000000        0.446295852   0.773007090   0.000000000
    -0.0000000    -0.0000000     5.8967933        0.000000000   0.000000000   1.065525785
 
                       Lattice parameters(A)       Cell Angles
                    a =      8.128238          alpha =   90.000000
                    b =      8.128238          beta  =   90.000000
                    c =      5.896793          gamma =  120.000000
 
                Current cell volume =           337.395525 A**3
                            density =             1.829188 amu/A**3
                                    =             3.037439 g/cm^3
 
                           -------------------------------
                                     Cell Contents
                           -------------------------------
 
            xxxxxxxxxxxxxxxxxxxxxxxxxxxxxxxxxxxxxxxxxxxxxxxxxxxxxxxxxxxxxxxxx
            x  Element         Atom        Fractional coordinates of atoms  x
            x                 Number           u          v          w      x
            x---------------------------------------------------------------x
            x  N                 1         0.656981   0.602175   0.427058   x
            x  N                 2         0.338379   0.343891   0.700216   x
            x  N                 3         0.012567   0.196878   0.445186   x
            x  N                 4        -0.602175   0.054806   0.427058   x
            x  N                 5        -0.343891  -0.005512   0.700216   x
            x  N                 6        -0.196878  -0.184310   0.445186   x
            x  N                 7        -0.054806  -0.656981   0.427058   x
            x  N                 8         0.005512  -0.338379   0.700216   x
            x  N                 9         0.184310  -0.012567   0.445186   x
            x  N                10         0.602175   0.656981   0.927058   x
            x  N                11         0.343891   0.338379   1.200216   x
            x  N                12         0.196878   0.012567   0.945186   x
            x  N                13         0.054806  -0.602175   0.927058   x
            x  N                14        -0.005512  -0.343891   1.200216   x
            x  N                15        -0.184310  -0.196878   0.945186   x
            x  N                16        -0.656981  -0.054806   0.927058   x
            x  N                17        -0.338379   0.005512   1.200216   x
            x  N                18        -0.012567   0.184310   0.945186   x
            x  N                19         0.333333   0.666667   0.580495   x
            x  N                20         0.666667   0.333333   1.080495   x
            x  Si                1         0.089017   0.508378   0.655282   x
            x  Si                2         0.234060   0.217825   0.450760   x
            x  Si                3        -0.508378  -0.419362   0.655282   x
            x  Si                4        -0.217825   0.016234   0.450760   x
            x  Si                5         0.419362  -0.089017   0.655282   x
            x  Si                6        -0.016234  -0.234060   0.450760   x
            x  Si                7         0.508378   0.089017   1.155282   x
            x  Si                8         0.217825   0.234060   0.950760   x
            x  Si                9        -0.419362  -0.508378   1.155282   x
            x  Si               10         0.016234  -0.217825   0.950760   x
            x  Si               11        -0.089017   0.419362   1.155282   x
            x  Si               12        -0.234060  -0.016234   0.950760   x
            xxxxxxxxxxxxxxxxxxxxxxxxxxxxxxxxxxxxxxxxxxxxxxxxxxxxxxxxxxxxxxxxx
 
 
------------------------------------------------------------------------ <-- SCF
SCF loop      Energy           Fermi           Energy gain       Timer   <-- SCF
                               energy          per atom          (sec)   <-- SCF
------------------------------------------------------------------------ <-- SCF
Initial  -7.57962396E+003  0.00000000E+000                     11100.56  <-- SCF
      1  -7.59682988E+003  8.20377761E+000   5.37685024E-001   11141.11  <-- SCF
      2  -7.59696267E+003  8.19099948E+000   4.14958148E-003   11182.25  <-- SCF
      3  -7.59259215E+003  8.37401713E+000  -1.36578745E-001   11218.62  <-- SCF
      4  -7.59179817E+003  8.50108553E+000  -2.48118775E-002   11254.80  <-- SCF
      5  -7.59167943E+003  8.52888162E+000  -3.71061392E-003   11291.73  <-- SCF
      6  -7.59166669E+003  8.53545878E+000  -3.98146713E-004   11328.78  <-- SCF
      7  -7.59166789E+003  8.53901399E+000   3.74841935E-005   11367.89  <-- SCF
      8  -7.59166901E+003  8.54272275E+000   3.49536450E-005   11401.67  <-- SCF
      9  -7.59166910E+003  8.54374304E+000   3.04739278E-006   11426.22  <-- SCF
     10  -7.59166913E+003  8.54429318E+000   8.91860157E-007   11448.97  <-- SCF
     11  -7.59166914E+003  8.54445344E+000   7.48869785E-008   11471.27  <-- SCF
------------------------------------------------------------------------ <-- SCF
 
Final energy, E             =  -7591.669135464     eV
Final free energy (E-TS)    =  -7591.669135464     eV
(energies not corrected for finite basis set)
 
NB est. 0K energy (E-0.5TS)      =  -7591.669135464     eV
 
 
 ******************************** Symmetrised Forces ********************************
 *                                                                                  *
 *                           Cartesian components (eV/A)                            *
 * -------------------------------------------------------------------------------- *
 *                         x                    y                    z              *
 *                                                                                  *
 * N               1     -0.80327              1.84913              0.76237         *
 * N               2      0.00833             -0.27255             -0.23017         *
 * N               3     -1.74732              0.64992             -0.24353         *
 * N               4     -1.19976             -1.62022              0.76237         *
 * N               5      0.23188              0.14349             -0.23017         *
 * N               6      0.31081             -1.83818             -0.24353         *
 * N               7      2.00303             -0.22891              0.76237         *
 * N               8     -0.24020              0.12906             -0.23017         *
 * N               9      1.43651              1.18826             -0.24353         *
 * N              10      1.19976             -1.62022              0.76237         *
 * N              11     -0.23188              0.14349             -0.23017         *
 * N              12     -0.31081             -1.83818             -0.24353         *
 * N              13     -2.00303             -0.22891              0.76237         *
 * N              14      0.24020              0.12906             -0.23017         *
 * N              15     -1.43651              1.18826             -0.24353         *
 * N              16      0.80327              1.84913              0.76237         *
 * N              17     -0.00833             -0.27255             -0.23017         *
 * N              18      1.74732              0.64992             -0.24353         *
 * N              19      0.00000              0.00000              1.13050         *
 * N              20      0.00000             -0.00000              1.13050         *
 * Si              1     -0.24981             -0.40731             -0.52855         *
 * Si              2     -0.45854              0.29192             -0.13695         *
 * Si              3      0.47765             -0.01269             -0.52855         *
 * Si              4     -0.02354             -0.54306             -0.13695         *
 * Si              5     -0.22784              0.42000             -0.52855         *
 * Si              6      0.48208              0.25114             -0.13695         *
 * Si              7     -0.47765             -0.01269             -0.52855         *
 * Si              8      0.02354             -0.54306             -0.13695         *
 * Si              9      0.22784              0.42000             -0.52855         *
 * Si             10     -0.48208              0.25114             -0.13695         *
 * Si             11      0.24981             -0.40731             -0.52855         *
 * Si             12      0.45854              0.29192             -0.13695         *
 *                                                                                  *
 ************************************************************************************
 
 *********** Symmetrised Stress Tensor ***********
 *                                               *
 *          Cartesian components (GPa)           *
 * --------------------------------------------- *
 *             x             y             z     *
 *                                               *
 *  x     -2.521994     -0.000000      0.000000  *
 *  y     -0.000000     -2.521994     -0.000000  *
 *  z      0.000000     -0.000000      8.229482  *
 *                                               *
 *  Pressure:   -1.0618                          *
 *                                               *
 *************************************************
  
 +------------+-------------+-------------+-----------------+ <-- min LBFGS
 |    Step    |   lambda    |   F.delta'  |    enthalpy     | <-- min LBFGS
 +------------+-------------+-------------+-----------------+ <-- min LBFGS
 |  previous  |    0.000000 |    1.171846 |    -7590.972999 | <-- min LBFGS
 | trial step |    1.000000 |    0.652585 |    -7591.666818 | <-- min LBFGS
 +------------+-------------+-------------+-----------------+ <-- min LBFGS
  

--------------------------------------------------------------------------------
 LBFGS: improving iteration        10 with line minimization (lambda=  2.256759)
--------------------------------------------------------------------------------
 
                           -------------------------------
                                      Unit Cell
                           -------------------------------
        Real Lattice(A)              Reciprocal Lattice(1/A)
     7.0103756    -4.0474422    -0.0000000        0.896269425  -0.000000000   0.000000000
     0.0000000     8.0948845    -0.0000000        0.448134712   0.776192091   0.000000000
    -0.0000000    -0.0000000     5.8616996        0.000000000   0.000000000   1.071905037
 
                       Lattice parameters(A)       Cell Angles
                    a =      8.094884          alpha =   90.000000
                    b =      8.094884          beta  =   90.000000
                    c =      5.861700          gamma =  120.000000
 
                Current cell volume =           332.640787 A**3
                            density =             1.855335 amu/A**3
                                    =             3.080856 g/cm^3
 
                           -------------------------------
                                     Cell Contents
                           -------------------------------
 
            xxxxxxxxxxxxxxxxxxxxxxxxxxxxxxxxxxxxxxxxxxxxxxxxxxxxxxxxxxxxxxxxx
            x  Element         Atom        Fractional coordinates of atoms  x
            x                 Number           u          v          w      x
            x---------------------------------------------------------------x
            x  N                 1         0.660359   0.608626   0.426456   x
            x  N                 2         0.341491   0.345956   0.697965   x
            x  N                 3         0.010289   0.190965   0.443721   x
            x  N                 4        -0.608626   0.051732   0.426456   x
            x  N                 5        -0.345956  -0.004465   0.697965   x
            x  N                 6        -0.190965  -0.180676   0.443721   x
            x  N                 7        -0.051732  -0.660359   0.426456   x
            x  N                 8         0.004465  -0.341491   0.697965   x
            x  N                 9         0.180676  -0.010289   0.443721   x
            x  N                10         0.608626   0.660359   0.926456   x
            x  N                11         0.345956   0.341491   1.197965   x
            x  N                12         0.190965   0.010289   0.943721   x
            x  N                13         0.051732  -0.608626   0.926456   x
            x  N                14        -0.004465  -0.345956   1.197965   x
            x  N                15        -0.180676  -0.190965   0.943721   x
            x  N                16        -0.660359  -0.051732   0.926456   x
            x  N                17        -0.341491   0.004465   1.197965   x
            x  N                18        -0.010289   0.180676   0.943721   x
            x  N                19         0.333333   0.666667   0.586596   x
            x  N                20         0.666667   0.333333   1.086596   x
            x  Si                1         0.088652   0.504450   0.659740   x
            x  Si                2         0.230711   0.220206   0.448586   x
            x  Si                3        -0.504450  -0.415798   0.659740   x
            x  Si                4        -0.220206   0.010505   0.448586   x
            x  Si                5         0.415798  -0.088652   0.659740   x
            x  Si                6        -0.010505  -0.230711   0.448586   x
            x  Si                7         0.504450   0.088652   1.159740   x
            x  Si                8         0.220206   0.230711   0.948586   x
            x  Si                9        -0.415798  -0.504450   1.159740   x
            x  Si               10         0.010505  -0.220206   0.948586   x
            x  Si               11        -0.088652   0.415798   1.159740   x
            x  Si               12        -0.230711  -0.010505   0.948586   x
            xxxxxxxxxxxxxxxxxxxxxxxxxxxxxxxxxxxxxxxxxxxxxxxxxxxxxxxxxxxxxxxxx
 
 
------------------------------------------------------------------------ <-- SCF
SCF loop      Energy           Fermi           Energy gain       Timer   <-- SCF
                               energy          per atom          (sec)   <-- SCF
------------------------------------------------------------------------ <-- SCF
Initial  -7.57304427E+003  0.00000000E+000                     11565.42  <-- SCF
      1  -7.60008063E+003  8.37497708E+000   8.44886355E-001   11611.42  <-- SCF
      2  -7.60031023E+003  8.35735304E+000   7.17499985E-003   11654.73  <-- SCF
      3  -7.59340256E+003  8.60982004E+000  -2.15864704E-001   11690.19  <-- SCF
      4  -7.59215512E+003  8.75713364E+000  -3.89826310E-002   11726.69  <-- SCF
      5  -7.59197058E+003  8.78313367E+000  -5.76687381E-003   11763.22  <-- SCF
      6  -7.59195046E+003  8.78731665E+000  -6.28794477E-004   11800.98  <-- SCF
      7  -7.59195219E+003  8.79144486E+000   5.42688049E-005   11841.33  <-- SCF
      8  -7.59195380E+003  8.79638665E+000   5.02194111E-005   11874.91  <-- SCF
      9  -7.59195395E+003  8.79757908E+000   4.66699002E-006   11899.78  <-- SCF
     10  -7.59195401E+003  8.79855343E+000   1.93785177E-006   11923.34  <-- SCF
     11  -7.59195401E+003  8.79874520E+000   8.03926745E-008   11946.08  <-- SCF
     12  -7.59195401E+003  8.79885981E+000   2.05691898E-008   11968.20  <-- SCF
------------------------------------------------------------------------ <-- SCF
 
Final energy, E             =  -7591.954014164     eV
Final free energy (E-TS)    =  -7591.954014164     eV
(energies not corrected for finite basis set)
 
NB est. 0K energy (E-0.5TS)      =  -7591.954014164     eV
 
 
 ******************************** Symmetrised Forces ********************************
 *                                                                                  *
 *                           Cartesian components (eV/A)                            *
 * -------------------------------------------------------------------------------- *
 *                         x                    y                    z              *
 *                                                                                  *
 * N               1     -0.99721              1.68780              1.16315         *
 * N               2     -0.29116             -0.47324             -0.09460         *
 * N               3     -2.10694              1.39156             -0.30647         *
 * N               4     -0.96307             -1.70751              1.16315         *
 * N               5      0.55541             -0.01553             -0.09460         *
 * N               6     -0.15166             -2.52044             -0.30647         *
 * N               7      1.96028              0.01971              1.16315         *
 * N               8     -0.26426              0.48877             -0.09460         *
 * N               9      2.25859              1.12888             -0.30647         *
 * N              10      0.96307             -1.70751              1.16315         *
 * N              11     -0.55541             -0.01553             -0.09460         *
 * N              12      0.15166             -2.52044             -0.30647         *
 * N              13     -1.96028              0.01971              1.16315         *
 * N              14      0.26426              0.48877             -0.09460         *
 * N              15     -2.25859              1.12888             -0.30647         *
 * N              16      0.99721              1.68780              1.16315         *
 * N              17      0.29116             -0.47324             -0.09460         *
 * N              18      2.10694              1.39156             -0.30647         *
 * N              19     -0.00000              0.00000              1.07429         *
 * N              20      0.00000              0.00000              1.07429         *
 * Si              1     -0.12541             -0.19572             -0.98150         *
 * Si              2      0.54760              0.02974             -0.13868         *
 * Si              3      0.23220             -0.01075             -0.98150         *
 * Si              4     -0.29956              0.45937             -0.13868         *
 * Si              5     -0.10679              0.20647             -0.98150         *
 * Si              6     -0.24805             -0.48911             -0.13868         *
 * Si              7     -0.23220             -0.01075             -0.98150         *
 * Si              8      0.29956              0.45937             -0.13868         *
 * Si              9      0.10679              0.20647             -0.98150         *
 * Si             10      0.24805             -0.48911             -0.13868         *
 * Si             11      0.12541             -0.19572             -0.98150         *
 * Si             12     -0.54760              0.02974             -0.13868         *
 *                                                                                  *
 ************************************************************************************
