1960
NVT: 39,000 steps, T=300K, Box=31.9800A, ρ=2.2004g/cm³
Si   7.030340  17.135740  29.511138
Si  16.242962   3.609395  12.948291
Si   2.468620  20.976585  25.985715
Si  17.649718  25.968544  20.395831
Si  30.644266  21.175913  21.139363
Si   2.520019  13.224693   7.268128
Si   1.737910   6.085808   4.692096
Si  10.956567  23.757402  11.114144
Si  29.865768  26.996362  14.708527
Si  26.337657  13.445419  30.947689
Si  16.043258   9.146448  10.138229
Si  11.721418  18.291896  17.454907
Si  12.387573  18.441371   3.619593
Si  26.567874  20.030085   1.893809
Si  14.322861  24.803490  28.462512
Si  23.554421  29.558993  25.820620
Si  12.550016  12.051968  30.610193
Si  23.369231  28.224087   5.584473
Si  27.404501   0.663204  14.741709
Si  21.425263  11.911761  12.019416
Si  13.996283  10.191639   7.653899
Si  16.208068  27.042802  27.771528
Si   0.278377   4.096834  13.945775
Si   6.810620  26.791662  14.402640
Si  17.999551  13.892047  25.909941
Si  19.226140  14.366903  20.381583
Si  14.767160   6.984541  29.139779
Si   2.606900  24.534127  15.951656
Si  29.674642  15.741219   9.621200
Si  22.626972  17.351206  11.284270
Si   8.346163  14.726129  16.344214
Si  26.793004   8.338459  12.542933
Si   4.342835   6.340675  14.624871
Si   6.854495  14.097736   9.888121
Si  16.901005  23.825086  22.401098
Si  18.093241  19.858890  11.429940
Si  15.676481  16.690328   5.497722
Si  24.853988  17.986664  24.519326
Si  19.176834   6.317607  20.150085
Si  19.282876  23.401358  14.781303
Si  19.395559   0.328890  18.988468
Si  22.310255  28.129119   2.734365
Si   4.976449  24.763590   9.612469
Si   1.084913  13.207123  22.787517
Si  21.037402  23.160462  17.325747
Si  11.271755   2.607722  22.019253
Si  18.270148  29.192978  29.878573
Si  24.380956  17.373194  14.029982
Si  24.931206  29.522508  14.717927
Si  27.093683  29.234713  24.712151
Si  15.712938  13.203922   6.083258
Si  22.297297  12.762791   9.588633
Si   5.314306   2.934742  22.803756
Si  23.567311   4.343277  11.710021
Si  17.251233  14.878109   9.977018
Si  15.353613  26.031052   9.172478
Si   6.271748  19.382421  17.225021
Si  10.168386   4.341550  28.748108
Si  10.353394  19.850546  12.800203
Si  17.963993  11.264906  12.439576
Si  13.832892  15.804805  27.756323
Si   6.243492  19.929174  12.473956
Si  15.597533  17.642027  10.359116
Si  22.920015  23.312498  21.228555
Si  30.784588  25.420604  11.439092
Si  14.101157   7.754863   2.902261
Si   7.833821  10.949886  28.257113
Si   6.209136  18.243115  22.238489
Si  18.584746  19.935201  14.664552
Si  11.811987  25.931250   9.367728
Si  14.317886  20.123200   1.752185
Si  27.391490  11.550189  21.017464
Si  18.021366  14.247665  15.495093
Si   8.656752  17.365481  24.410407
Si   3.046316  15.149615  30.163270
Si   6.994879   8.498731  24.330684
Si  18.488730  25.935272  15.153282
Si  22.635350  28.199358   8.444909
Si  27.408134  17.610755  20.755419
Si   7.461137   3.201063  18.182896
Si  26.577744  18.652073   5.162790
Si   5.589371   5.815425   8.324783
Si  23.203957  24.948388   5.613616
Si  30.411951  27.699743  28.431081
Si  13.149563  19.752917  27.458809
Si   1.986647  29.790698  27.407908
Si   2.043921  13.484987  15.006587
Si  18.815573  18.394684   7.628862
Si   7.983566  13.280369  22.087064
Si  15.405305  27.045331  23.489483
Si   0.175788  10.390797  29.219423
Si   6.623095  10.908267   9.152233
Si   0.193809  26.718993   1.630124
Si   7.050700   5.759559  22.919820
Si  27.278100  23.669762   8.973952
Si  30.913832  17.187250  30.031442
Si  20.924428  24.209608  30.872006
Si  25.912700  24.096397   6.599943
Si   8.275145   8.449523  10.203483
Si  21.741610   2.049677  12.224106
Si  26.390127  23.272402  23.846791
Si  30.016258  19.765836   1.108419
Si   2.348036  23.929393  26.361989
Si  13.504977   8.738133  20.717620
Si   3.034509  18.419668  18.027180
Si  30.328289  30.326234  23.883786
Si  16.124419  28.111970  13.940180
Si  18.448038  18.391415  25.338470
Si  25.384814  13.535881   3.427406
Si  20.078792   9.222056  20.512067
Si  29.260533   8.982217  14.564683
Si  20.183032   5.319004   9.818757
Si  13.892503  22.300504  22.840671
Si  15.856816  13.149527  11.915749
Si  27.540173  14.233525   5.640224
Si  30.112048  12.759872  27.745897
Si  18.558901  24.271898  29.087428
Si   3.729568  25.557898   1.517468
Si  15.956409   4.211689  18.918517
Si  24.305978  13.726106  26.055234
Si  14.003686  26.186766  20.647480
Si   7.135720  21.552541  25.453618
Si  11.260289  22.756064   7.083666
Si   4.537112  11.094994  11.477298
Si  21.484705   2.913719   4.258549
Si   0.351813   1.598433  18.147844
Si  24.412772  15.190513  23.576428
Si  25.383761  12.422549   9.570393
Si   4.420764   4.007774  17.044725
Si  20.114870  10.138405  23.721940
Si  14.641370  28.921676  25.620689
Si  22.580868  16.144059  21.427309
Si  27.517533  22.838923  20.922571
Si   1.244764   8.207844  10.978636
Si   3.027055  21.510819   5.480331
Si  25.926865   2.608087  19.124154
Si  26.486364  10.294235  30.161866
Si  15.490421   8.023364  14.688436
Si  19.645847  30.973106  15.959579
Si  22.740536   9.371445   1.799112
Si   4.212516  12.514983  22.319545
Si  28.872605   8.683998  24.916062
Si   2.124091   3.464011  26.020977
Si  27.015177  15.058608   8.285297
Si  15.638554  15.935565  30.232531
Si  28.382384   4.120602  19.277135
Si  14.211169  29.290768   8.097812
Si  16.054222   7.712007   5.135448
Si   0.163455   8.457052  21.118827
Si  10.450799   8.308910   5.140168
Si  29.610053   3.771568   8.453998
Si   7.325809  26.049198   7.334409
Si  18.040069  21.080888  20.336964
Si   0.623745   7.043191  17.750994
Si  18.404312   8.294598  13.184079
Si  24.165902  16.847966   8.707265
Si   7.756605  18.566350  19.451519
Si  22.937555   3.816817  17.671704
Si  22.578213   9.507608  11.712977
Si  26.386377  24.591662  12.136447
Si  27.826400   0.476885  17.587424
Si   2.083123  25.052322   8.943678
Si   7.064863   4.227260   4.559754
Si  13.886336  10.601314  18.374807
Si  19.454438   1.832709   1.890944
Si   3.271946   6.313395   9.530943
Si   5.830776   3.033097   6.557011
Si  18.399844  10.630371  26.116468
Si  18.241964  22.470066   6.657356
Si  11.464194  23.661818  23.448747
Si   1.327072  30.530294  11.679146
Si   1.652245  14.594858  25.880207
Si   6.142594  21.900154   9.803750
Si   4.658325  15.731364  13.900775
Si  24.687205  10.995511  17.307125
Si  29.727951  10.809972  16.614324
Si  26.947159  10.831345  24.063540
Si   1.650235   7.225773  29.544495
Si  14.917920  13.916003  16.064909
Si  18.230414  18.605338   4.837867
Si  25.319147   7.247710   7.890688
Si   2.033014  12.978422  10.270029
Si  16.713811  21.994504  17.645851
Si   7.794702  16.900816   5.187165
Si  15.531675  10.496701  21.563516
Si  20.727357  12.727114  15.120285
Si  10.835698  26.704036   0.906791
Si  20.561822  18.378730  21.170665
Si   4.185306  23.533516   3.438388
Si  28.659661  21.562919  25.355289
Si   4.099211  19.877828  28.856002
Si  25.112089  13.897264  18.328988
Si   7.801526   3.343411  26.180348
Si  22.887127  10.447205  21.371243
Si  29.429306  23.893050   2.249916
Si   2.983500  27.175904  22.099668
Si  25.498168  15.494817  28.272638
Si   4.465934   1.073191  24.932183
Si  11.273628   8.549997   8.336474
Si   4.610325  20.179380  23.893369
Si  15.060031  28.236983   1.969036
Si  20.074265  11.583600   6.129329
Si  16.145325  17.283581  18.748445
Si   8.915124  13.648785   2.637875
Si  18.544722   2.141641   8.162608
Si   6.782349  20.312383  28.191706
Si  24.199884   8.834210  24.001304
Si  16.989645  20.756840   3.535136
Si  21.754915  25.465338   8.445340
Si  12.178773  13.516432   2.774905
Si   6.272512  27.565097  20.939962
Si  28.410839   3.324081  28.016313
Si  11.279156  26.342280  28.696747
Si  12.794267  27.042759   3.791639
Si   9.071313  10.198402  22.471647
Si  30.778999  17.432060  14.038689
Si  10.163479  12.701737   7.116528
Si  11.986458   2.399208   0.517867
Si  23.826561  24.247945  16.093969
Si  20.795445  25.189721  19.597275
Si  14.066259   6.844351  26.136507
Si  11.803518   9.415671  29.465457
Si   7.810843  14.781193  24.808141
Si  21.948568   7.653318  25.160653
Si  26.314459  17.904452  17.775973
Si  11.636944  25.001124  14.037915
Si   4.441997  16.620866  28.055350
Si   7.611942  18.904173   7.558077
Si  10.182854   0.326759   2.179733
Si  26.627513  30.512732   2.225371
Si   9.057756  10.346798  19.212390
Si   6.203017  25.830602  24.514322
Si  27.674389  26.626304   5.677182
Si  10.258457  21.095870  21.855872
Si  13.931704   4.814073  10.914635
Si  23.028760  14.615754  15.753605
Si  13.588363   7.776299  11.824547
Si  10.378987  20.904442   3.050102
Si  10.901773  27.439462  15.774039
Si  30.630618  18.072898  21.619761
Si   3.911732  15.327511  10.534253
Si  14.134634  23.277365  19.643885
Si  31.030293  15.454950   5.634904
Si  16.954318  24.558928  17.182414
Si   2.906231   5.637518  19.547552
Si  24.902113  28.063457  28.188152
Si   1.892396  26.616203  13.668868
Si   0.434074   7.743440   2.561357
Si  10.849957  15.619546  12.112618
Si  25.591326   9.423460  19.625202
Si  24.708088   0.712510  21.143262
Si  30.325343  18.181335   5.759868
Si   2.430608  21.303301  19.186334
Si   4.817911  15.539675  25.478664
Si   4.435003  28.945297  14.005121
Si  22.383434   7.467713   8.972270
Si  15.839710  22.201283  12.278607
Si  28.403773  13.161550  14.872499
Si  23.295442   3.441518   0.306449
Si  11.677220   9.201478  26.173093
Si   6.282857  24.222306  26.737762
Si   4.842267  23.320311  19.632527
Si   5.368966  26.037957   4.732638
Si   3.337068  15.647710  19.512396
Si  15.267556  18.392897  26.247405
Si  16.287848   0.487870   6.128524
Si   4.692510   4.842590   3.385756
Si  16.159915   6.199128  20.670796
Si  27.862871   7.069889  20.670064
Si   4.564877   0.971301  12.802690
Si  15.214936   1.164977  24.724379
Si   8.682904  24.953806  28.690799
Si  15.668245  30.089064  17.102798
Si   3.118041  12.038620  30.077870
Si  13.648049  16.364846  20.675441
Si  21.409770  22.211332  25.964579
Si   3.181285   0.097321  30.224622
Si   7.793557  11.475630   0.702349
Si  18.981356  11.623499  18.315032
Si  19.178448  18.210057   1.445311
Si  19.749603  24.587183  24.413663
Si  14.144152  16.105540   2.694299
Si  14.087410  13.146751  25.367565
Si  29.788099   3.846565   5.174193
Si  18.765357  25.423448   5.404921
Si  20.697893   8.919082  27.700395
Si  23.001239  24.546173  12.911352
Si  16.826460   4.772431   3.756158
Si   1.131999   7.286084  14.149208
Si  15.469560  22.686204   5.566558
Si  28.636347  29.568468  12.829264
Si  25.003910  12.224101  14.840513
Si  19.455863   3.214565  29.417598
Si  15.194685  23.752917   1.124234
Si  17.413717  18.505281  21.364583
Si  21.176813  10.362065   8.161429
Si  10.623497   4.361380   6.969976
Si  21.346004  20.140410  10.844529
Si  25.850175   3.739844  14.135503
Si  24.881029   5.936415  15.655270
Si  20.487648  12.555642  30.781986
Si   6.504104  28.415523   9.230840
Si  27.135909  30.061526  21.465905
Si   8.542001  27.154827  11.633060
Si  27.561135  27.147959  11.330779
Si   4.104387  10.157132  24.401731
Si  22.654810  30.240422  23.082998
Si   9.285630   4.858256  24.700616
Si   6.294646  22.118694   1.593981
Si   6.752979   1.230692  20.593297
Si  28.571700   8.746735  10.121506
Si   8.388482  20.987068   5.216528
Si  29.098475  14.088866  30.671831
Si   9.459377  16.663779  18.731660
Si  29.433352   7.377207   7.466764
Si  27.973629  18.611251  25.346635
Si   0.773381  10.008636  23.870706
Si   5.581563   7.287236  20.168234
Si  23.305670  27.454715  16.459072
Si  25.088545  10.853514  11.969661
Si  17.576347  29.907975   3.286605
Si  29.872315  24.517247   5.017135
Si  20.777045  27.967630  15.191809
Si  22.668312  25.008975  25.616964
Si   4.123254   3.530247  30.549559
Si  18.319153   9.759160   4.488567
Si   1.104382   2.060295   9.224256
Si  17.067186  18.638341  30.308764
Si  10.552968  14.693159  21.028327
Si  28.649050  28.007940  17.840596
Si  30.745987  20.021330  12.121458
Si  17.173648  30.579688  21.364711
Si   5.963300  13.002323  13.803939
Si  23.836320   7.162547  13.019599
Si   0.777567  14.170559   2.569392
Si  19.961178  13.833481   3.645345
Si   2.022864   8.076922   7.036708
Si   9.358488  15.756666   0.212656
Si   5.002248  10.604019  27.636465
Si   0.403909  22.319138   7.747040
Si  11.632320  14.451953  28.727274
Si   1.622472  19.371826   3.628335
Si   4.778908  15.783172  22.431117
Si  24.880154  21.464534  19.865722
Si  20.325157  18.543019  28.075198
Si  18.920114   5.436734  12.256930
Si   7.694913  10.788049  12.898079
Si  12.374948   2.456699  24.722099
Si   1.394818   4.295672  28.864951
Si  24.519381  18.870209  21.745562
Si  19.213498  27.936346   1.984355
Si  13.593559   0.807130   9.941828
Si   2.954218   3.980043  12.572329
Si   3.954970  14.230490   2.419530
Si  14.359449   2.391472   4.494216
Si  30.168936  10.897851  19.697687
Si   0.513265  25.603111  22.098100
Si   4.432882  19.745742   7.739779
Si  21.019145  24.451397   3.239229
Si  26.613578  14.615848  21.064413
Si  11.829624  23.382829  17.102215
Si   1.976144  26.085897   5.604830
Si  27.893305  15.343544  16.975741
Si  10.972562   7.813481  21.614315
Si  11.574557  11.555106  24.571613
Si  25.624809   6.303031  22.905511
Si  21.504818  30.611396   0.352031
Si   7.341745  28.025393  23.796501
Si   8.366195   4.249643  11.300841
Si  20.873331  22.778841  12.229442
Si  14.527742  18.119884   8.032856
Si  21.632206  10.280264  17.341734
Si   8.041618  25.165512  19.395355
Si  17.238672   2.444884  22.769863
Si  10.830446  15.906364   5.586382
Si  13.025561  20.397299   6.380133
Si  28.914604  21.418603  16.461100
Si  13.026184  30.288933  16.176212
Si  16.056641  19.107156  16.275427
Si  22.183821  14.841603   7.148063
Si  17.139544  24.749171  11.114203
Si   2.851722  29.035538  24.717958
Si  19.260531  23.659412   9.461326
Si  15.252223  10.645004  26.293674
Si  17.281486  25.646825   0.498035
Si   4.962071  11.538169   2.068765
Si  16.190895   5.039079  23.457017
Si   1.788065   9.869375  16.134239
Si  15.461747  11.274316  29.468528
Si  17.810440  13.345808  28.728290
Si  19.321059   4.118613   5.961999
Si   8.789331   5.854059   9.260366
Si  11.493339  28.910909  27.094004
Si  30.161492   4.229989  16.632765
Si  21.474682  27.339410  12.124423
Si  28.661426   3.654688  11.676645
Si  15.986063  27.932296  19.296942
Si  23.710582  30.129924  11.511348
Si   4.531515  23.599339  29.820379
Si   0.507866  23.306097  23.574448
Si  11.710397  12.389741  18.931468
Si  10.059486  27.624223  24.850501
Si  20.445312   1.486023  24.294802
Si  16.783226   1.466083  10.244809
Si  28.331804  10.839551   5.630317
Si  25.893598   1.019502  25.940663
Si  22.155287  17.043634  14.993436
Si  22.552801   1.274438  15.505867
Si  28.237084  18.626967  10.414946
Si  12.115816  13.379532   5.536927
Si  11.126673  13.416049  15.829983
Si  29.660012   3.003608  25.043526
Si   5.322533  24.488632  12.653669
Si   6.886643  22.282272  17.064576
Si  12.113573  29.613595   6.109377
Si   5.912235   7.315366   5.651169
Si  22.311466  15.953754   3.654442
Si  27.267771   8.509875  27.839980
Si  23.861626   4.687405   3.185718
Si  20.848761   7.834681   3.335279
Ca   8.616899   6.652000  19.151638
Ca  20.071686   9.256753   0.709724
Ca   7.176471  21.341364  20.169290
Ca  29.655118   6.822419  27.044592
Ca  21.424825  27.343545  28.286432
Ca  22.702205  17.172639  18.621960
Ca  29.846150   1.182316   0.430234
Ca  21.388430  17.849010   6.286959
Ca  28.154085  26.224452  20.748352
Ca  26.043481  22.099699  14.487104
Ca  11.054411   6.387186  11.025554
Ca  12.252642  22.802924   0.675380
Ca   0.977285  19.208001   9.258559
Ca  22.639592  28.786061  19.553998
Ca   6.049990  25.396051  16.552614
Ca  29.199951  16.329402  27.429774
Ca   7.971108  18.687096   1.601235
Ca   7.812469   1.108009  11.294007
Ca  30.006070   1.715697  21.009325
Ca  15.744934  21.482522  28.331953
Ca  12.034844   6.044877   0.908816
Ca  25.777570  28.129330  19.176442
Ca   5.821630  15.079955   6.939768
Ca   1.720680  29.442473   6.675693
Ca  15.555948  13.359435  19.359814
Ca  12.115685  29.358630  30.568082
Ca   2.720643  12.608963  18.932908
Ca  22.227720   1.703545   9.303462
Ca   8.691636  14.144214  13.322591
Ca  15.243677   1.062612   0.835863
Ca  22.210580  12.868857  19.466906
Ca  13.841815   0.947589  28.088169
Ca  15.019308   4.646391   1.223740
Ca  23.793077   8.182632  28.349916
Ca  10.890888  24.147688  20.239136
Ca  13.484439  24.235642   7.642055
Ca   2.778041  28.685088   3.003942
Ca  24.480298   0.825319   3.352800
Ca  26.271234   4.913297   6.254289
Ca  12.646910  23.507395   4.146493
Ca  25.602305  20.057574   8.329986
Ca  16.763725   9.222569  18.650762
Ca   4.216403  26.852348  27.283901
Ca  18.444098   0.208033  12.420652
Ca  23.466724  22.437020   9.945565
Ca   9.502994  24.943280  16.375387
Ca  29.511177  15.530219  23.601885
Ca  10.606353  16.705615  15.048791
Ca  26.200086  29.031201   8.550433
Ca  19.902128  15.667614   9.045356
Ca  30.336389  10.808198   8.539612
Ca  23.314060   4.411695  24.479272
Ca  22.256432  26.144604  22.209404
Ca   9.195830  23.920931   8.993921
Ca  21.893259  12.844035  22.702373
Ca  18.722207   8.499268   9.300488
Ca  28.878867  30.735613  26.919151
Ca   9.382194  23.913356  25.261320
Ca   1.310723  28.457601  17.127803
Ca  20.614749   3.970271  26.320006
Ca  18.191133  23.576313   3.412714
Ca   9.674934  12.900236  10.196625
Ca   9.227527  16.247871   8.531008
Ca  17.566191   0.763587  26.522956
Ca   0.677877  14.565045  12.280705
Ca   7.710067  23.722413   4.678540
Ca  26.500685   2.867146   4.168351
Ca  26.858513   4.747845  25.872547
Ca  12.264489   2.124221  19.179705
Ca  10.725915   3.167358  10.011191
Ca  10.812709   9.554647   2.155861
Ca  22.889012  11.718667   5.100898
Ca  18.376579  14.600222   6.740363
Ca  10.492898  17.468935  27.645050
Ca  23.090822  17.178903  27.517759
Ca  16.020449  23.717685  25.351611
Ca   7.952392   9.177067   3.558885
Ca   2.427572   1.403791  15.078199
Ca   9.490141  20.565454   9.824464
Ca  21.030406   0.425325  27.613526
Ca  19.838781  28.097107  20.869177
Ca  12.551252  18.060548  10.976646
Ca  15.351564  26.716196   5.583790
Ca   1.275029  15.870884  17.027308
Ca   3.445848  18.150403  12.254185
Ca   6.845823   7.500286  16.691669
Ca  29.960863  23.985850  18.293500
Ca   3.344203   7.810550  21.920955
Ca  28.536651  20.455997   7.560979
Ca   4.791712   9.241272  14.206140
Ca  21.706723   8.258518  14.940103
Ca  16.195682  16.177886  13.278777
Ca  26.757497   2.985127  22.543276
Ca  11.356628   8.162167  17.514933
Ca  10.782552  26.389745   6.355373
Ca   2.550047  16.693332   7.690773
Ca  28.580735  22.282040  29.210561
Ca  27.676209  18.928538  14.072453
Ca  12.167726   5.620226   4.398046
Ca  20.930843  20.729664   4.539327
Ca  15.031620  16.047730  23.922678
Ca  12.617513  19.272023  20.813988
Ca  21.705215  21.093470  20.417503
Ca   9.075665   0.840120  24.538634
Ca  13.102133   9.225556  23.838460
Ca   8.195162   9.850625   7.170540
Ca  28.064817   6.831003   3.918693
Ca  27.644547   8.103878  17.531019
Ca   1.588045  10.528594   4.669692
Ca  19.192000  21.297380  30.785313
Ca  29.083689  22.151420  10.603475
Ca   1.504917  17.757273  24.582618
Ca  11.667217  18.940982  30.544304
Ca  20.413662  21.213571  22.990723
Ca   1.588935  10.889699  12.936392
Ca   8.633092  22.674694  13.078914
Ca   4.321284  18.000159   1.167218
Ca   6.718209   5.368410   0.784004
Ca   4.962559   1.347961   3.700711
Ca  23.892139  24.868119  28.873937
Ca  26.101958   1.766083  29.613704
Ca  27.584755  15.645194  13.062423
Ca  29.686079  10.432560   2.528712
Ca  18.425543   8.074055  16.579478
Ca  10.353376  27.522105  21.812051
Ca  18.212657  21.043858  27.106432
Ca  10.026550   1.278226  16.830174
Ca   5.546539  22.386881  14.272312
Ca   2.650878  30.619462  20.284151
Ca  20.169974  20.638127   7.688961
Ca  10.758504  10.061405  11.944238
Ca  19.560270   3.930242  18.679913
Ca  16.926296   5.236985   8.667309
Ca  16.500077  11.280884  15.871342
Ca   3.766351  23.486355  22.545347
Ca  13.456217   3.383579   7.382873
Ca  22.997830  11.475729  29.403909
Ca   6.075014   5.844637  27.615371
Ca   6.970843  29.697068  26.628882
Ca  12.219788  23.311209  27.417663
Ca  18.418971  15.831759  22.738369
Ca   8.366060  17.399407  11.023892
Ca  21.413719   0.761415   6.293617
Ca  25.968793  21.561947   4.496540
Ca   3.512106  18.389221  15.010394
Ca  29.358271  23.352253  13.685559
Ca  12.671509  29.803762  22.330362
Ca   7.754377  28.189070  17.417338
Ca   2.351498  26.391020  19.365560
Ca  13.630838  17.679942  14.135079
Ca  12.997722  13.378009  21.775395
Ca  11.073538   0.389852   8.333615
Ca  29.254144  17.902118  17.922951
Ca  15.258746  23.407828  15.050764
Ca   8.712472  29.246488   5.323666
Ca  17.572164   2.527791  15.858609
Ca  21.870306  21.218070  29.206845
Ca   2.688580   3.919326   6.501153
Ca  21.534885  18.449667  24.984154
Ca  13.691466  26.424607  15.999079
Ca  23.240781   4.583520   7.641991
Ca  13.823684   2.444477  15.760718
Ca   3.739251  10.148849   8.560567
Ca  29.898551  15.264334  20.175681
Ca  24.914058  26.102755  10.042540
Ca  13.709869   6.868652   8.053459
Ca   9.304442  22.961279   1.186150
Ca  30.056840   5.762013  22.789090
Ca  13.125402  13.912330  14.022539
Ca  21.047375  27.530600  24.771496
Ca   8.491482   7.670764  29.801951
Ca   8.984910  20.317755  15.668463
Ca   6.286844  13.119320  19.067330
Ca   8.624565   3.332521  14.602428
Ca   6.201466  25.266637   0.883412
Ca   3.805870  30.283590   9.338273
Ca   4.975777  14.370591  16.412431
Ca  24.633989  15.551354   6.064087
Ca   5.681509   2.278649  28.189911
Ca  29.024770  26.616740   8.685343
Ca  28.202406   7.923485   0.767690
Ca  11.908144  15.555626   8.552823
Ca  16.089028  20.540726  24.012783
Ca   9.411123   4.936224  20.725964
Ca  21.126109   6.430635  30.079641
Ca  21.956908  11.442117  26.158489
Ca  14.580728   2.839328  21.424871
Ca  23.832304  19.044864   5.123766
Ca  15.893973  20.766161   8.314512
Ca  12.800279  18.933267  23.446047
Ca   1.781668  21.495251   0.484134
Ca  17.880974  27.931245  10.620215
Ca  12.786011  15.925033  17.224759
Ca  11.354994  27.363805  18.474691
Ca   9.357090   0.751336  28.400423
Ca  19.787223  15.821774  12.546869
Ca  23.809739  22.279534   1.266464
Ca  17.759123   6.731810  28.741974
Ca  21.595161   6.624220  17.699156
Ca  19.724969   4.909121   1.701910
Ca  26.957251  29.498251   5.595701
Ca  10.358409  20.496651  25.071079
Ca  20.231637   5.680820  23.070145
Ca  29.392050  29.066759   3.760926
Ca  24.332243  28.377666   0.391920
Ca  10.996240   2.080635   4.878058
Ca  22.362770  20.702783  14.420685
Ca  30.608643   5.334347  10.784297
Ca   7.527409  17.699264  14.082309
Ca  30.434140  19.420796  27.939331
Ca  28.021104  27.862238  30.706006
Ca   4.865741  10.644828   5.617897
Ca  20.344662  19.513313  17.526115
Ca   5.965419  28.919758   2.267860
Ca  28.637844  25.906352  24.041315
Ca  13.072299  20.794053  14.936453
Ca   5.592303  20.293051   4.024355
Ca   5.996910   1.204387  16.198859
Ca  26.538419  24.530260  17.962105
Ca   7.618628   7.170391  13.319385
Ca  25.761238  10.292948   3.398714
Ca   7.353881  11.463979  16.462209
Ca  16.646489  12.952206  23.083197
Ca  12.820981  10.257462   4.581364
Ca   3.180876  27.508609  10.378162
Ca  25.106627  26.890722   3.465384
Ca  24.578351  17.438243   1.169757
Ca  23.911059  21.125198  24.752567
Ca  19.984726  29.922724   9.552870
Ca  26.402070   4.132680   9.952944
Ca  26.418453   5.866770  28.975532
Ca   7.126659  23.253085  22.125517
Ca  10.450716  21.098528  18.282298
Ca  26.689922   1.129682   9.696945
Ca  21.666556  15.452055  30.746235
Ca  11.576665   1.661300  12.970546
Ca  12.977667   5.470473  23.147290
Ca   2.431426  21.441610  12.683383
Ca  16.851419   8.411516  23.826797
Ca  21.972441   2.750111  20.406346
Ca  18.136784  11.847166   8.799463
Ca  26.414640  18.524773  28.964389
Ca  30.416267  28.938219  20.541194
Ca  28.524606  12.065959  11.323535
Ca   6.085187  10.771812  20.528314
Ca   3.954653   8.278253   2.950690
Ca  12.957726  10.502713  14.949176
Ca  24.967544  26.704536  24.092308
Ca   4.753473   3.070858   9.897528
Ca  14.033937  29.183760  12.518018
Ca  17.501277  15.103993   2.323708
Ca  26.958820  25.223320  26.625097
P    4.848542   8.458398  30.026928
P   26.365749  24.891684   1.738961
P    9.506422  13.146370  26.330074
P   25.041653  20.631016  12.204359
P    8.964202  27.155018   3.509236
P    7.357163   1.026486   8.358679
P   18.673374  28.210882   6.863217
P   16.345606   3.270718  28.380361
P   13.551703  21.815721  10.229310
P   25.121041   7.124592   2.410440
P    8.780937   7.391854  26.306083
P    7.480965  12.844983   5.409176
P   17.824155  28.664120  23.581165
P   12.457542   4.333033  27.018354
P   11.818046   4.869345  14.119958
P    4.861095  10.077201  17.874337
P   27.813779   4.341720   1.241265
P   29.780948  30.491829   8.274302
P   23.493258   4.450669  28.286792
P   21.027436  14.984526  25.522449
P    5.203197  16.671480   4.652319
P   25.036661   1.908947   6.739271
P    7.054618  27.849147  28.842357
P   25.579551  10.181004   7.259599
P   24.731637  25.835070  20.947493
P   10.419649   5.059736  16.764184
P   18.623813  25.919088  26.997531
P   25.558671  21.512563  28.138740
P    4.700909  28.893641   5.400213
P   27.609685  13.307254  25.586386
P    9.045285  30.223923  14.400117
P   16.252860   8.993847   0.399913
P    9.256636  30.385255  19.868949
P    1.576503  21.496912  15.635257
P   24.459706  20.160718  16.839120
P    1.027338   1.417182   4.474241
P   30.078930  24.629588  26.675519
P    2.325372   3.051921  22.086537
P   11.098005  15.698129  23.682978
P    9.212222   6.298656   2.989941
P   23.325811  21.335439   6.418778
P    7.300495   1.917187   1.099585
P   11.496391  28.657656  10.930023
P    9.915306  21.726720  28.957936
P   21.799289  19.783705   2.063457
P   16.177000  11.736899   3.411242
P   19.686733   4.879665  15.399133
P   22.973227   5.856329  21.358233
P    4.717610  28.750821  17.973452
P   18.239030   6.350547  25.520026
P    9.602719   9.567606  15.230485
P   14.887699   6.440197  17.084880
P   20.433010   6.919330   6.217823
P    3.043750   6.397807  25.412314
P   18.633443  16.313071  18.281772
P   13.027778  12.049078   9.900636
O   23.948814  13.329323   9.628937
O   11.580510  15.536059  22.200705
O   10.353036  21.440140  13.904243
O   18.867302  27.880640   8.615096
O   17.009147  28.140711  28.940831
O    5.621389  27.609264   5.388899
O   26.684843  11.626875  22.572133
O   20.156567   1.587168   8.115984
O    2.454710   4.958519   8.262151
O    7.740867  22.097250   9.178815
O   17.714993   9.506831  12.156530
O   20.223030   2.627663   5.427761
O   12.366434   7.719810  25.770604
O   14.218328  28.219670  24.074173
O    9.304149  13.035130  15.653195
O   19.264401   0.849833  14.519192
O   27.535488  29.133600  11.495714
O   24.003631   0.609538  25.791072
O    3.884716  16.907830  10.177090
O   11.643448  10.609856  30.946193
O   15.268524  25.150203  16.481116
O    5.903211  28.169230  14.191584
O   19.853052   8.400914  29.083798
O   22.031646  13.459286  15.897327
O   10.282056  23.360377  17.826596
O    4.208090  20.064629  12.945169
O   30.329582  19.281875   7.474225
O   24.735672   3.038029  20.731283
O    5.267499  24.009291  28.149685
O   14.680912  18.496755  24.372946
O    9.660204  27.009619  17.083814
O    7.268286   9.392406   9.299712
O   27.577484  12.464500   5.513621
O   10.257912  17.044896  23.789141
O   29.574535  17.616427   0.936172
O    0.435981  28.584443   2.540096
O   21.158765  19.005465  22.754534
O    6.739070   2.607357  21.780031
O   17.642158   2.841953   9.337399
O    9.899346   0.950156  14.603864
O   11.105473   9.986302  24.832967
O   23.046468  16.380928   7.472465
O   10.629597  25.277551  22.723795
O   26.171692   0.617185  19.115212
O   13.309037  11.683761  19.854336
O    5.327482   7.166909   7.343223
O   27.303245   2.158361  11.410499
O    0.826674   4.584609   5.046107
O   14.483885  27.531056   3.552394
O    4.621307  27.310029   2.328801
O    8.151812   5.089178  12.988633
O    5.946574   4.417118  23.711095
O   17.575822  30.525066  10.356142
O   19.308364   5.851203   5.582561
O   20.206944   1.284492  11.670215
O   17.127184  12.016352  29.527795
O    8.532037  20.013660   6.675573
O   28.166016  15.006242  15.222569
O   26.629851  27.033009   9.592617
O   14.265917   7.776696  13.372230
O   24.637775  25.319407  26.611871
O   26.101972  26.496882  12.652060
O   26.382560   7.927424   3.296923
O    7.666908  24.732127  23.883756
O   18.569809  20.171741  24.670720
O   10.992808  14.672251  24.955663
O   19.552261  22.618862  13.160374
O    2.867968   7.140554  14.778315
O   29.279466  16.010198  30.309645
O   25.705742  16.261921   8.556900
O   28.051391  30.072485   8.966934
O    1.957891   6.828604  18.716924
O   28.432139  12.642250  26.927145
O   17.517966   3.535033  17.899061
O    2.615554   3.536430  27.908421
O   19.805335  27.831904  11.317646
O   24.405031  23.901225   6.017986
O   19.539283  14.725655  26.134587
O   17.633051   8.547840   5.453684
O   25.592513   8.067828  27.221453
O    6.453138  24.940643   8.559351
O   23.934092  21.772079  13.542997
O   11.286960   9.662575  27.918478
O    6.462592  16.501376  22.708005
O    8.895106   1.427010   1.519580
O   25.542019  21.708190   2.345363
O   13.736742  30.188134  14.251478
O   25.745771  24.620621   3.177772
O   12.757666  17.847190   8.775110
O   21.905774  22.418230   6.526963
O    7.529989  25.585244   3.198945
O   14.825496  24.202186   5.554670
O    4.981289  23.064575  10.095099
O   20.007315  29.533102   6.629476
O    8.947032   8.469897  11.715285
O   26.653195  24.224748  10.505182
O   16.868401  28.315354   6.368247
O    8.938023  12.891918   6.003725
O   22.254823  22.337195  22.496358
O   23.152710  19.228429  17.847295
O   21.626426  25.988837  26.844445
O   12.623036   3.179086  23.145107
O   17.149078  14.298049  27.321888