1960
Final structure after 5000 MC steps, T=300 K, Box=26.0001 Ĺ
Si   6.790343  16.276196   1.705177
Si  15.460198   3.307622  12.018843
Si   2.716678  19.745066  24.813678
Si  16.807556  24.453344  19.381834
Si   0.294976  20.272983  19.973442
Si   2.194842  12.687402   6.988462
Si   1.919288   5.613979   4.156476
Si  10.901293  22.617972  10.542435
Si   2.302138  25.930119  14.022234
Si  24.947274  12.885371   0.527740
Si  14.995187   8.442609   9.321147
Si  10.899959  17.786488  16.654315
Si  11.618559  17.702706   3.597124
Si  25.624762  18.742378   1.912711
Si  13.562609  23.633789   1.220401
Si  22.235441   1.680602  24.529184
Si  12.121151  11.523397   0.192448
Si  22.242075   0.785681   5.116905
Si  25.774935   0.994591  13.988577
Si  19.712063  11.376289  11.430832
Si  13.122301   9.671922   7.382613
Si  15.329990  25.706888   0.351471
Si   0.331826   3.969066  13.205136
Si   6.348720  25.491001  13.317641
Si  17.193418  13.246527  24.808175
Si  18.046129  13.159353  19.307150
Si  13.680292   7.067242   1.213654
Si   2.728426  23.155192  15.166109
Si   2.129380  15.006638   8.993224
Si  21.584157  16.490751  10.782836
Si   7.991724  13.789752  15.650215
Si  25.310136   7.764692  12.100343
Si   4.166116   5.701159  13.692592
Si   6.436907  13.295076   9.348196
Si  16.077812  22.540137  21.357285
Si  17.280912  18.811843  11.013180
Si  14.715749  15.537284   5.423831
Si  23.802617  17.177105  23.484216
Si  18.142188   6.084820  19.117061
Si  18.090127  21.742661  13.926415
Si  18.537000   0.504409  18.215092
Si  21.185321   0.691137   2.462469
Si   4.774759  23.586259   9.233062
Si   1.058633  12.527844  21.923156
Si  19.981518  22.036870  16.398436
Si  10.842292   2.463226  20.822142
Si  16.897166   1.763739   2.120392
Si  23.269831  16.910995  12.986768
Si  23.447682   2.084110  13.902870
Si  25.927205   1.912929  23.397360
Si  14.745531  12.664734   5.792750
Si  21.137267  12.187354   9.037021
Si   5.246337   2.962604  21.731802
Si  22.289611   4.108771  11.116744
Si  16.273987  14.133140   9.526152
Si  14.609508  24.799604   8.922536
Si   5.748160  18.546170  16.219237
Si   9.541491   4.108584   1.496101
Si   9.971279  18.583007  12.497410
Si  17.195430  10.508764  11.947684
Si  13.137167  14.949589   0.207820
Si   5.929866  18.952014  11.834361
Si  15.033177  16.856166   9.899327
Si  21.858932  22.441986  20.296367
Si   0.554468  24.269820  10.877187
Si  13.641797   7.414217   3.008414
Si   7.439073  10.386289   0.804361
Si   6.226176  17.132940  21.368362
Si  17.987472  19.240445  14.056904
Si  11.643973  24.704055   8.907660
Si  14.028758  19.628698   1.266325
Si   0.430345  11.487932  20.391247
Si  17.390334  13.792482  14.883342
Si   8.279619  16.421175  23.146890
Si   2.921535  14.373390   2.489977
Si   6.364003   8.211711  22.840997
Si  17.445552  24.676603  14.344731
Si  21.530841   0.979957   7.926978
Si   0.017033  16.791022  19.682033
Si   6.908974   3.221789  17.303440
Si  25.518510  17.660896   4.947560
Si   5.301490   5.266796   7.963119
Si  21.884510  23.763973   5.448178
Si   0.186622   0.133959   0.956278
Si  12.665430  18.698794   0.334154
Si   2.034205   2.217288   0.291473
Si   2.188005  13.100583  14.252088
Si  17.848383  17.291673   7.427663
Si   7.611719  12.502013  21.080298
Si  14.527650  25.669432  22.352895
Si   0.813822   9.459811   1.505931
Si   6.091370  10.550774   8.596468
Si   0.437436  25.464077   1.374607
Si   6.683207   5.332546  21.636862
Si  25.477823  22.578786   8.610971
Si   0.355227  16.136565  25.875237
Si  19.999076  22.976110   0.415047
Si  24.675067  22.948865   6.335949
Si   8.204989   8.464936   9.489604
Si  20.530682   1.886669  11.842641
Si  25.129261  21.992757  22.777830
Si   2.398079  18.734136   1.282675
Si   2.376415  22.487007  24.586816
Si  12.951037   8.029742  19.555646
Si   3.282941  17.610165  17.444769
Si   0.138042   0.422623  22.568967
Si  15.311619   0.729791  13.345218
Si  17.612866  17.622503  24.131325
Si  24.090137  12.978934   3.351852
Si  19.210377   8.834010  19.726273
Si   1.614130   8.552424  13.762619
Si  19.244790   4.876497   9.081562
Si  13.349153  21.259646  21.373980
Si  14.771888  12.298827  11.141948
Si   0.128491  13.394012   5.089755
Si   2.410385  12.035008   0.285743
Si  17.557143  22.768699   1.576753
Si   3.199646  24.405437   1.493772
Si  14.886716   4.001587  17.641873
Si  23.446725  13.079567  24.944322
Si  13.563713  24.911530  19.611082
Si   6.689187  20.560749  24.051813
Si  10.439769  21.334121   6.506917
Si   4.268079  10.601987  10.920326
Si  20.237232   2.899386   3.996701
Si   0.581454   1.406648  17.183416
Si  23.400735  14.301300  22.273625
Si  24.135511  11.852013   8.971651
Si   4.282658   3.873261  16.148559
Si  19.142400   9.428262  22.588844
Si  13.782436   1.551818  24.871804
Si  21.421496  15.482723  20.542918
Si   0.154135  21.547968  19.938879
Si   1.340948   7.896989  10.373909
Si   2.805662  20.464422   5.237131
Si  24.481731   2.539493  18.159689
Si  24.678719  10.339115   0.164107
Si  14.636434   7.576691  13.790155
Si  18.421107   0.445460  15.189483
Si  21.771641   9.079314   1.779425
Si   3.921321  11.906084  21.195680
Si   1.515868   8.299332  23.893735
Si   2.055250   3.342927  24.753983
Si  25.379608  14.386548   7.907001
Si  14.876696  15.175141   0.067336
Si   0.724488   4.371219  18.361514
Si  13.870524   1.703101   7.851157
Si  15.182064   7.188706   5.015796
Si   0.284123   8.087175  20.058943
Si   9.897996   7.909060   5.103229
Si   1.966024   3.808379   7.778726
Si   6.889005  24.474718   7.050962
Si  17.108852  20.169483  19.625757
Si   1.079785   6.687528  16.840841
Si  17.270519   7.704320  12.567160
Si  23.038017  16.199797   8.329954
Si   7.288214  17.739244  18.692077
Si  22.036524   3.673851  16.602503
Si  21.357423   9.126638  11.278538
Si  24.696739  23.340627  11.499241
Si   0.346681   0.785346  16.798628
Si   2.019291  24.077317   8.231361
Si   6.922961   4.195258   4.307852
Si  13.062626  10.446647  17.497759
Si  18.452343   1.580681   1.786697
Si   3.129779   5.990472   9.028202
Si   5.697564   2.956356   6.447428
Si  17.338540  10.218561  24.772926
Si  17.390028  21.507578   6.328123
Si  11.018024  22.497601  22.230446
Si   1.492463   0.344901  11.143281
Si   1.681362  13.652960  24.895440
Si   5.678806  20.622571   9.173628
Si   4.312432  14.745383  13.189824
Si  23.657607  10.135859  16.522346
Si   2.098282  10.389577  15.905425
Si  25.615596  10.146568  22.857930
Si   1.916340   6.689507   1.618830
Si  14.330120  13.351016  15.314126
Si  17.106158  17.351542   4.640187
Si  23.892132   6.966298   7.760646
Si   1.923829  12.081972   9.992414
Si  16.064522  20.695942  16.827020
Si   7.582595  15.910662   4.626772
Si  14.802505   9.988010  20.654470
Si  19.809743  11.891722  14.340951
Si  10.517682  25.034397   1.541130
Si  19.557939  17.262962  20.220366
Si   3.965838  22.388989   3.498445
Si   1.311153  20.428154  23.848357
Si   4.046064  18.604892   1.701696
Si  24.069967  13.102440  17.425896
Si   7.749243   3.008840  25.091629
Si  22.206633   9.818862  20.174455
Si   1.788274  22.853272   2.162904
Si   3.108587  25.773475  21.278436
Si  24.203345  14.980856   0.861505
Si   4.227362   1.496455  24.030077
Si  10.604296   8.331473   7.717367
Si   4.521789  19.413294  22.672185
Si  14.498871   0.544977   1.992456
Si  19.112595  11.103152   5.536456
Si  15.211432  16.266354  17.992004
Si   8.497214  13.049540   2.326112
Si  17.706831   2.277992   7.585347
Si   6.613813  19.186856   0.705207
Si  22.916213   8.635459  23.142699
Si  16.002621  19.964742   3.215970
Si  20.638832  24.277492   7.989278
Si  11.489567  13.058151   2.754110
Si   5.823128   0.004791  19.928634
Si   1.294040   3.110072   0.575524
Si  11.246775  24.863269   1.334028
Si  12.277388   0.054530   3.531584
Si   8.524352   9.575973  21.462566
Si   0.467314  16.587797  13.477138
Si   9.078661  12.524908   6.883047
Si  11.358840   2.328966   0.569259
Si  22.387082  23.309677  15.117088
Si  19.487344  24.006987  18.538635
Si  13.088784   6.569643  24.769892
Si  11.294801   8.527541   2.205819
Si   7.086521  13.754214  23.800912
Si  20.759774   7.337681  24.256596
Si  25.062023  17.035792  16.887098
Si  10.889267  23.789639  13.198371
Si   4.450325  16.325111   0.344542
Si   7.186267  17.732657   6.965382
Si   9.460144   0.745610   2.127442
Si  25.613141   0.302195   2.032913
Si   8.900525   9.676449  18.372551
Si   5.910214  24.535022  23.320307
Si   0.318936  25.219561   5.646453
Si   9.575122  20.257538  20.870472
Si  13.288600   4.634067  10.304532
Si  22.149718  13.802178  15.048872
Si  13.160763   7.587794  11.059364
Si   9.818618  19.689465   2.866812
Si  10.411704   0.274352  14.765347
Si   0.447891  17.398044  20.286935
Si   3.687870  14.580533  10.206763
Si  13.470067  22.027489  18.647774
Si   0.603141  14.616880   5.588239
Si  16.102592  23.625417  16.567671
Si   3.054405   5.117481  18.504254
Si  23.899777   0.548601   0.663392
Si   1.995123  25.495491  13.173862
Si   0.868734   7.296650   2.192794
Si  10.309089  15.022479  11.289109
Si  24.551361   9.079804  18.638367
Si  23.296735   0.921522  19.871664
Si  25.929738  17.405562   5.429862
Si   2.404492  20.272616  17.992914
Si   4.250450  14.564428  24.024835
Si   4.106062   1.485620  13.336939
Si  21.163063   7.330621   8.870960
Si  15.172726  20.849180  11.638015
Si   0.879473  12.610615  14.113028
Si  21.967096   3.215313   0.552698
Si  10.780339   8.538541  24.936221
Si   5.934352  22.854217  25.713258
Si   4.470335  22.050536  18.886997
Si   4.941734  24.567030   4.798316
Si   3.358210  14.909127  18.577395
Si  14.576543  17.116609  24.939857
Si  15.462540   0.716401   6.015158
Si   4.207778   4.685764   2.958959
Si  15.201387   6.028475  19.795741
Si   0.256937   6.798767  19.655469
Si   5.060847   1.490477  11.925667
Si  14.528750   1.215013  23.359740
Si   8.145423  23.691039   1.315356
Si  14.968377   2.145493  16.035710
Si   3.075061  11.344550   2.396748
Si  13.011178  15.552149  19.594116
Si  20.366038  21.438279  24.432781
Si   3.011979   0.501583   0.245923
Si   7.379782  10.592904   0.959699
Si  18.151793  10.690857  17.680063
Si  18.332265  17.281512   1.759168
Si  18.398733  23.117131  22.878698
Si  13.155752  15.572896   2.625369
Si  13.458310  12.668332  24.159253
Si   2.242975   3.529831   4.921813
Si  17.899882  24.174827   5.089957
Si  19.482147   8.855998   0.262119
Si  22.133824  23.712312  11.977474
Si  15.868010   4.606883   3.567953
Si   1.304620   6.849057  13.212719
Si  14.891308  21.564565   5.200232
Si   1.229699   2.013988  12.152402
Si  23.951030  11.707118  14.038543
Si  18.370298   3.228625   1.915349
Si  14.472513  22.496486   1.131147
Si  16.491170  17.501939  20.327006
Si  20.080881   9.845032   7.581523
Si  10.318387   4.243734   6.462293
Si  20.077992  19.089540  10.249931
Si  24.560657   3.480546  13.233441
Si  23.556742   5.766613  15.139703
Si  19.139779  12.260911   0.385764
Si   6.065823   0.794805   8.457819
Si  25.874457   2.264764  20.389456
Si   7.843478  25.681623  10.911859
Si   0.203150  25.895410  10.763954
Si   3.944801   9.873019  23.250941
Si  21.522574   2.543829  21.853287
Si   8.799590   4.790359  23.051584
Si   5.817022  21.096572   1.501482
Si   6.160174   1.354138  19.472435
Si   1.012696   8.196564   9.514751
Si   8.009359  20.003426   5.216093
Si   1.903490  13.481875   0.397022
Si   8.924115  15.825996  17.736767
Si   1.759385   6.772458   7.097532
Si   0.343568  17.785859  24.138213
Si   1.175919   9.894011  22.703730
Si   5.483677   6.506229  19.274403
Si  22.281122   0.262308  15.667744
Si  24.099960  10.440821  11.431548
Si  16.535738   2.722828   3.026045
Si   2.314039  23.041418   4.913034
Si  19.575280   0.333037  14.540170
Si  21.824245  23.723052  24.458608
Si   3.600295   3.412859   0.396120
Si  17.331259   9.258070   4.170513
Si   1.096541   2.161718   8.904546
Si  15.952935  17.826360   0.006594
Si  10.116835  13.818463  20.163178
Si   1.206300   0.613900  16.869894
Si   0.498210  18.946406  11.651164
Si  16.242714   0.423225  20.036238
Si   5.511448  12.117106  13.236484
Si  22.610873   6.680033  12.533836
Si   1.098588  13.039899   2.777099
Si  19.249566  12.981330   3.603959
Si   2.023196   7.479205   6.319155
Si   9.050161  14.975284   0.375038
Si   4.670580   9.870118  25.958976
Si   0.807363  21.243813   7.127070
Si  10.709188  13.684807   1.093326
Si   1.898512  18.439548   3.299909
Si   4.361335  14.590652  21.348332
Si  23.567892  20.260303  19.103986
Si  19.361840  17.846515   0.707314
Si  18.003083   5.018553  11.583655
Si   7.449754  10.045065  12.222912
Si  11.799992   2.350735  23.479293
Si   1.419649   4.148173   1.413001
Si  23.320021  17.770247  20.372072
Si  18.318950   0.353181   1.965068
Si  13.078296   1.109036   9.308554
Si   3.035552   3.863705  11.887917
Si   3.990413  13.540724   2.417899
Si  13.768005   2.663062   3.754122
Si   0.083340  10.096917  18.632710
Si   0.634221  24.418696  20.477543
Si   4.416092  18.844007   7.251020
Si  20.191904  23.170517   3.310863
Si  25.058890  13.852250  19.884247
Si  11.507466  22.427582  16.417035
Si   2.032199  24.821448   5.319475
Si   0.224099  14.594332  16.340843
Si  10.424764   7.696928  20.849729
Si  11.015655  11.079379  23.595727
Si  24.236449   6.120809  21.611402
Si  20.913693   0.472300   0.649830
Si   6.877136   0.847000  22.447226
Si   7.937665   3.867597  10.935471
Si  19.885090  21.897513  11.367005
Si  13.607263  17.204321   7.628261
Si  20.324729   9.901588  16.254350
Si   7.603724  24.227164  18.743121
Si  16.741218   2.441638  21.737713
Si  10.418471  15.458940   5.308299
Si  12.422408  19.410343   5.874119
Si   1.224600  20.256151  15.763085
Si  12.240545   2.410471  15.336325
Si  15.394199  18.222610  15.497115
Si  21.040185  14.048506   6.924172
Si  16.244389  23.622186  10.798121
Si   2.541585   1.545965  23.237254
Si  18.490832  22.478632   8.942246
Si  14.425638  10.134690  25.339570
Si  16.476231  24.511658   0.920403
Si   4.756553  11.058349   2.253887
Si  15.446326   4.854523  22.432966
Si   1.939688   9.271349  15.515985
Si  14.911853  10.807110   1.948445
Si  16.638654  13.129462   1.794744
Si  18.280388   3.830449   5.396462
Si   8.415950   5.596314   8.404197
Si  10.978824   1.488159  25.625290
Si   2.560204   3.996360  15.879398
Si  20.524357   0.253576  11.569744
Si   0.879464   3.297941  11.487772
Si  15.228539   0.994745  18.512853
Si  22.666951   2.201945  10.981981
Si   4.321595  22.665646   2.153409
Si   0.785531  21.951415  22.374052
Si  10.819747  11.779728  18.131638
Si   9.700826   0.018309  23.611984
Si  19.430313   1.767264  22.979317
Si  15.886037   1.481713   9.754541
Si   0.786743  10.430865   5.521182
Si  24.421361   1.466355  24.460144
Si  20.989290  16.327867  14.521142
Si  21.307873   1.570670  14.523767
Si   0.851277  17.619860  10.018357
Si  11.801283  12.784311   5.390960
Si  10.341243  12.598404  15.229902
Si   2.185306   3.063257  23.501956
Si   4.982652  23.496840  11.947712
Si   6.504385  21.355425  16.244679
Si  11.738068   1.745967   5.602175
Si   5.711989   6.911180   5.402375
Si  21.624534  14.939093   3.464743
Si  25.945401   8.185016   0.320338
Si  22.668223   4.417747   3.132703
Si  19.630221   7.479256   3.235588
Ca   8.250247   6.407586  18.360747
Ca  18.809389   8.693100   0.850933
Ca   7.183979  20.427331  18.582754
Ca   2.351872   6.317572  25.653244
Ca  20.391283   0.010759   0.852543
Ca  21.948185  16.445979  17.782091
Ca   2.214644   1.140637   0.836390
Ca  20.638767  16.776086   6.519181
Ca   0.721113  25.026987  19.401426
Ca  24.426202  21.589692  13.824205
Ca  10.493732   6.018779  10.594895
Ca  11.613613  21.564160   0.905709
Ca   1.067554  18.245758   8.845091
Ca  21.331754   1.068645  18.461736
Ca   5.326044  24.107558  16.063693
Ca   1.575321  15.748392  25.850334
Ca   7.940019  17.943417   1.731869
Ca   7.351761   1.208031  10.829574
Ca   2.424624   1.717133  19.672900
Ca  14.838759  20.610284   0.743863
Ca  11.891117   5.813693   1.012900
Ca  24.615089   1.070023  18.170899
Ca   5.233946  14.091565   6.770748
Ca   1.766865   1.949925   6.166203
Ca  14.671794  12.684333  18.492452
Ca  11.587281   2.227593   0.160550
Ca   2.853516  11.830145  17.794638
Ca  20.981136   1.926670   8.901517
Ca   8.053498  13.288108  12.703453
Ca  14.489027   1.250146   1.196476
Ca  21.162652  12.561571  18.675731
Ca  13.064264   0.918869   0.908268
Ca  14.346014   4.178068   1.331333
Ca  22.644637   7.759929   0.931155
Ca  10.227732  22.815299  19.507164
Ca  12.908749  23.221905   6.971577
Ca   2.557156   1.469143   2.684235
Ca  23.023201   0.707903   3.348201
Ca  24.910715   4.875755   5.985010
Ca  11.963103  22.631627   3.858331
Ca  24.499604  19.024025   8.210450
Ca  15.895002   8.662782  17.589943
Ca   3.995745  25.667480  25.676926
Ca  17.307611   0.477936  12.120266
Ca  22.242484  21.343300   9.294330
Ca   8.651899  23.671874  15.478759
Ca   2.246223  14.789728  22.114520
Ca  10.238628  15.576250  13.843440
Ca  24.910634   1.228618   8.394467
Ca  19.194786  15.091186   8.770869
Ca   0.177315  10.091210   8.072338
Ca  22.432199   4.127698  23.135939
Ca  21.034798  25.024818  20.857003
Ca   8.470373  22.891518   8.840774
Ca  20.676267  12.233678  21.530580
Ca  17.577595   7.928018   8.390035
Ca   1.293529   0.378492  25.622050
Ca   8.934066  22.816668  24.105935
Ca   1.706070   1.260902  16.120259
Ca  19.530572   3.706552  25.276260
Ca  17.166353  22.452521   3.411538
Ca   8.964457  12.303831   9.670980
Ca   8.683000  15.451270   8.086249
Ca  16.686018   0.817068  25.452858
Ca   0.237816  13.581602  11.963243
Ca   7.317114  22.792238   4.677429
Ca  25.330030   2.714331   3.550100
Ca  25.413550   4.237310  24.404465
Ca  11.431902   2.070926  18.082572
Ca  10.810260   3.056759   8.986835
Ca  10.186345   9.053024   2.130501
Ca  21.811927  11.332894   5.047898
Ca  17.390542  13.935755   6.413565
Ca  10.191834  16.606823   0.176526
Ca  21.970824  16.419637  25.864761
Ca  15.104127  22.739879  24.614457
Ca   7.204276   8.441720   3.252378
Ca   2.294459   1.308774  14.432528
Ca   9.220450  19.536250   9.489798
Ca  19.882292   0.561260   0.266050
Ca  18.863053   0.620340  20.040739
Ca  12.085977  17.027004  10.448215
Ca  14.684649  25.136545   5.530647
Ca   0.999303  15.025314  16.170425
Ca   3.503479  17.262279  11.426688
Ca   6.444385   7.286706  15.901351
Ca   0.023577  22.788486  17.348903
Ca   3.361019   7.761245  20.938234
Ca   1.046257  19.462812   7.141360
Ca   4.418369   8.874392  13.504421
Ca  20.149788   7.907666  14.092090
Ca  15.529434  15.215458  12.631196
Ca  25.289271   2.832635  21.555274
Ca  11.054562   8.051602  16.794342
Ca   9.901688  25.075507   5.854395
Ca   2.573131  15.766645   7.313156
Ca   1.163336  21.102254   2.005116
Ca   0.108946  17.909819  13.364576
Ca  11.752045   5.224219   4.147255
Ca  19.240875  19.455417   4.409224
Ca  14.263112  15.300349  22.456973
Ca  11.612021  18.399324  19.958518
Ca  20.445318  19.786491  19.044540
Ca   8.925746   1.117421  23.013150
Ca  12.680623   8.838894  22.746561
Ca   7.925388   9.432471   6.712560
Ca   0.783267   6.349554   3.896945
Ca   0.249532   7.495103  16.666881
Ca   1.774241  10.224508   4.512142
Ca  17.913228  20.164302   0.436597
Ca   1.641985  21.177686  10.275103
Ca   1.664538  16.667020  23.823225
Ca  10.792526  17.894866   0.629602
Ca  19.140463  19.947398  21.815267
Ca   1.537680  10.312063  12.276965
Ca   8.378353  21.647470  12.559638
Ca   3.868902  16.922628   1.443055
Ca   6.641307   5.318819   0.719330
Ca   4.660027   1.518507   3.353070
Ca  23.064292  23.784091   1.437184
Ca  24.736967   1.877499   2.181940
Ca   0.150423  15.213172  12.295519
Ca   2.045119  10.050319   2.198133
Ca  17.578640   7.444728  15.589615
Ca   9.783485  25.856099  20.690527
Ca  17.822191  20.216936  25.707392
Ca   9.397618   1.537808  16.174041
Ca   5.260690  20.918357  13.714430
Ca   2.756457   0.433566  19.421901
Ca  19.331549  19.534693   7.596595
Ca  10.023108  10.044196  11.185611
Ca  18.602038   3.779835  17.666571
Ca  16.143907   5.182150   8.212419
Ca  15.587714  10.733115  15.044047
Ca   3.687607  22.166306  21.390916
Ca  12.884019   2.923554   6.842466
Ca  22.082902  11.109019   1.794288
Ca   5.838056   5.507391   0.239566
Ca   6.702258   1.795278  25.366031
Ca  11.506807  21.924196  25.883271
Ca  17.797726  14.927965  21.792440
Ca   8.388076  17.001307  10.408747
Ca  20.195643   0.847537   6.017983
Ca  24.670506  20.693901   4.215703
Ca   3.450244  17.543205  14.295097
Ca   1.812522  22.334603  13.087994
Ca  11.829549   2.163399  21.691480
Ca   7.723758   0.613927  16.557757
Ca   2.355852  24.769952  18.163500
Ca  13.043328  16.516548  13.230197
Ca  12.476122  13.023374  20.671686
Ca  10.248202   0.657611   7.705368
Ca   2.049717  17.017262  17.048925
Ca  13.791103  22.280234  14.334814
Ca   8.578504   2.037462   4.924011
Ca  16.808426   2.541607  15.204290
Ca  20.996401  20.362441   1.507717
Ca   2.568777   3.390627   6.356851
Ca  20.510606  17.769800  24.039190
Ca  13.227395  24.606743  15.051428
Ca  22.192330   4.278827   7.077167
Ca  13.583657   2.505107  14.827227
Ca   3.409186   9.734704   7.899347
Ca   0.108672  13.964793  18.874110
Ca  23.290256  24.872170   9.611829
Ca  13.103763   6.208776   7.704963
Ca   8.974052  22.108636   1.388320
Ca   2.697534   5.179600  21.918514
Ca  12.460625  13.203230  12.945915
Ca  20.246284  25.941367  23.760945
Ca   8.343738   7.493991   2.250638
Ca   8.331962  19.396946  14.780057
Ca   6.139684  12.648639  18.377815
Ca   7.883781   3.322383  13.769823
Ca   6.202312  24.010745   1.290859
Ca   3.664881   0.161225   8.994864
Ca   4.586363  13.135594  15.944508
Ca  23.567003  14.792489   5.801881
Ca   5.241325   2.157954   0.862500
Ca   1.953373  25.204184   8.023792
Ca   0.766310   7.536004   0.569430
Ca  11.321863  14.620590   8.107976
Ca  15.505670  19.117115  23.214115
Ca   9.106514   4.507886  19.787626
Ca  20.545575   6.343155   2.685238
Ca  20.834188  10.931453  24.751226
Ca  13.692723   2.411565  20.429232
Ca  22.725312  17.792676   4.893933
Ca  15.229893  20.080848   8.271161
Ca  12.275223  17.971332  22.431468
Ca   1.771326  20.707830   0.808618
Ca  17.057858   0.439282  10.257082
Ca  12.039932  15.009133  16.595105
Ca  10.562835  25.987841  17.478976
Ca   8.828739   0.711630   1.208690
Ca  18.931385  15.199615  12.196454
Ca  22.752028  21.426911   1.141893
Ca  16.964352   6.290253   1.287336
Ca  20.686824   6.208880  17.177056
Ca  18.688912   4.565773   1.895966
Ca  25.626519   2.137406   5.331533
Ca   9.889407  19.546110  23.834590
Ca  19.200393   5.321252  21.921055
Ca   2.057572   1.714093   3.963376
Ca  23.305539   0.859576   0.828056
Ca  10.506742   1.768192   4.604204
Ca  21.157588  19.527394  13.806953
Ca   0.179054   5.419075  10.343315
Ca   7.243242  16.660688  13.599729
Ca   0.112341  18.699497   0.490602
Ca   0.088783   0.497439   0.032440
Ca   4.603966  10.477792   5.535382
Ca  19.652519  18.347935  16.733538
Ca   5.308452   1.362331   1.592610
Ca   1.048244  24.550129  22.831203
Ca  12.356770  19.772600  14.286776
Ca   5.046852  19.301529   4.016370
Ca   5.605624   1.116062  15.446203
Ca  25.163681  23.314195  17.016163
Ca   7.181206   6.936053  12.533554
Ca  24.627111   9.409082   3.620834
Ca   6.833636  10.878353  15.719375
Ca  15.919884  12.245961  21.745720
Ca  12.805506   9.717693   4.275709
Ca   3.285992  25.877414  10.261132
Ca  24.009015  25.622604   3.740334
Ca  23.278575  16.373248   1.055567
Ca  22.707189  19.857502  23.476853
Ca  18.934492   2.225756   9.393768
Ca  25.030932   4.136138   9.266800
Ca  25.246296   5.576561   1.379288
Ca   7.083437  21.955646  21.497610
Ca   9.702016  20.106153  17.549619
Ca  25.414833   1.170652   9.304619
Ca  20.588518  14.857683   0.334772
Ca  11.063261   1.774075  12.461423
Ca  12.412785   5.029237  22.229258
Ca   2.331709  20.581173  12.201875
Ca  15.843808   8.075407  23.291827
Ca  21.012181   2.519381  19.246900
Ca  17.444055  11.388747   8.346908
Ca  25.279953  17.786573   1.538940
Ca   0.221988   1.341051  19.466435
Ca   1.315969  11.386943  11.034002
Ca   5.623158   9.958833  19.655205
Ca   3.799644   8.061429   2.792906
Ca  12.446118  10.043836  14.247414
Ca  23.855113  25.433463  23.091189
Ca   4.474818   3.109852   9.455651
Ca  13.229399   2.214487  11.912775
Ca  16.664099  14.033436   2.166965
Ca  25.332397  23.523355  25.213497
P    4.479618   7.897858   2.269514
P   24.861090  23.651451   1.660916
P    9.110618  12.494719  25.238976
P   23.655913  19.638823  11.652104
P    8.064388  25.767157   3.219463
P    7.290000   1.011660   7.812298
P   17.803803   0.548407   6.698736
P   15.336723   3.284776   0.931312
P   12.604731  20.685221   9.590755
P   23.694235   6.959200   2.178601
P    8.151409   7.084019  24.940832
P    7.222153  12.239964   4.866481
P   16.839852   1.124514  22.273590
P   11.843559   4.205951  25.871391
P   11.177822   4.803040  13.570022
P    4.435289   9.714021  16.738024
P    0.513078   4.217500   1.223282
P    2.177975   2.488948   7.610480
P   22.569374   4.522509   0.551912
P   19.822216  14.201240  24.138765
P    5.020998  15.951396   4.457766
P   23.774302   1.908857   6.548121
P    6.795651   0.459809   1.602377
P   24.432644   9.727045   6.980846
P   23.699452  24.622709  19.799931
P    9.818661   4.922646  15.992434
P   17.830903  24.636119  25.405155
P   24.317013  20.644767   0.722811
P    4.880193   1.519477   4.781172
P    0.263155  12.711542  24.511385
P    8.564903   2.456372  13.718736
P   15.666059   8.295551   0.762172
P    8.865843   0.054231  18.988868
P    2.118041  20.272763  14.846621
P   23.268752  19.230833  16.328232
P    1.415338   1.621815   4.311546
P    0.029746  23.455129  25.932869
P    2.316415   3.431798  20.995607
P   10.775368  14.998895  22.552427
P    8.835831   5.864632   2.990022
P   21.958843  20.288584   6.241633
P    6.875956   1.901386   1.213031
P   10.629954   1.028496  10.390919
P    9.459332  20.269367   1.006008
P   20.848030  18.540568   1.723123
P   15.545326  11.209458   3.297789
P   18.788537   4.949664  14.501317
P   21.981768   5.786909  20.213022
P    4.623646   1.101369  17.377372
P   17.014134   5.950579  24.191763
P    9.067930   9.018531  14.528289
P   14.001741   6.057365  16.243790
P   19.404545   6.394015   5.948046
P    3.285828   6.231674  24.136147
P   17.669643  15.358240  17.259719
P   12.528367  11.418176   9.454400
O   22.766004  12.488193   9.392263
O   10.948316  14.622390  21.150575
O    9.712817  20.007155  12.955088
O   17.812017   0.724735   8.191731
O   16.304842   0.557674   1.323430
O    5.080587   0.109210   4.962887
O   25.673403  10.911422  21.507181
O   19.190075   1.431970   7.815163
O    2.304463   4.946871   7.935723
O    7.072180  20.618821   8.551362
O   17.102998   9.012298  11.465360
O   19.789149   3.128738   5.391023
O   11.790545   7.370017  24.655048
O   13.872088   0.645521  23.261696
O    8.845269  12.616974  14.953184
O   17.624865   1.429362  13.866781
O    0.262281   1.256717  11.175521
O   22.784291   0.599142  24.782446
O    3.826310  16.144216   9.732846
O   11.505825  10.099636   0.162210
O   14.768747  24.147523  15.741268
O    5.539304   1.056445  13.701459
O   18.973867   7.971824   1.483885
O   20.746310  12.955807  15.206587
O   10.012279  22.239340  16.825133
O    4.268149  18.923728  12.308118
O    0.010473  18.058566   6.904508
O   23.821958   2.094510  19.690986
O    4.703373  22.738749   0.604894
O   14.007284  17.761697  23.545879
O    9.488038  25.763321  15.807441
O    7.055613   9.423511   9.257729
O    0.363817  11.880565   5.122490
O    9.684941  16.183478  22.762069
O    0.216796  17.222976   1.034365
O    0.466870   0.669467   2.389073
O   20.184786  18.255782  21.395379
O    6.348758   2.399052  20.743532
O   16.677342   2.447953   8.919419
O    9.439517   1.052036  13.955598
O   10.722094   9.418867  23.569137
O   21.807353  15.420484   7.418543
O   10.157372  23.567794  21.481408
O   24.871432   1.117128  17.806410
O   12.303027  11.157714  18.673345
O    5.141885   6.833157   7.079788
O   25.904480   2.607158  10.684706
O    0.806258   4.562794   4.750737
O   13.790228   0.241369   3.205407
O    3.946546  25.724417   2.323087
O    7.523705   4.849722  12.084918
O    5.803050   4.367482  22.235484
O   16.913509   0.283147   9.871076
O   18.823991   5.301845   5.275684
O   19.399784   1.272205  11.194542
O   16.071805  11.602771   1.917684
O    7.859899  18.943387   6.322102
O    0.676566  14.061441  14.735462
O    0.031644  25.436607   9.319837
O   13.598538   7.602434  12.585832
O   23.266068  23.935396  25.042790
O   25.218704  24.767824  11.726309
O   24.985347   7.235901   3.085602
O    7.171379  23.644543  22.714339
O   17.653457  19.016433  23.620859
O   10.482381  13.921226  23.480586
O   19.027502  21.829353  12.712442
O    2.745945   6.575387  13.771677
O    1.999001  15.001237   0.052286
O   24.300370  15.420500   8.092203
O    0.936733   2.419840   8.453331
O    1.847728   6.067434  17.987744
O    1.192806  12.246708  25.465313
O   16.312349   3.390482  17.419235
O    2.245239   3.531681   0.267645
O   19.454976   0.832913  10.904609
O   23.258047  22.889572   5.651010
O   18.533492  13.923816  24.678144
O   16.428208   8.317876   5.204063
O   24.609134   7.535564   0.007854
O    6.086050  23.782105   8.311225
O   22.768810  20.293001  12.859283
O   11.063301   9.178578   0.622968
O    5.877684  15.633567  21.857702
O    8.280616   1.504291   1.523867
O   24.531051  20.076478   2.280482
O   12.625789   0.406895  13.921015
O   24.479721  23.454566   2.958144
O   12.564033  16.551363   8.419182
O   20.722072  21.195246   6.179567
O    7.451357  24.477558   3.308897
O   14.189813  22.749668   5.183490
O    4.746168  22.046128   9.494009
O   18.526171   1.783337   6.086344
O    8.427848   8.030663  10.935091
O   25.644337  22.722995  10.147645
O   16.360551   0.691887   6.131726
O    8.377404  12.498029   5.669596
O   21.165810  21.136989  21.167737
O   22.106808  18.562844  16.734892
O   20.792762  24.737727  25.321486
O   11.591652   3.170631  22.033412
O   16.732397  13.429475   0.283703