1960
NVT v2.0: 21000 steps, T=300K, Box=31.9800A
Si   7.297528  17.262345  29.440559
Si  16.235410   3.581041  13.011083
Si   2.521254  20.616928  26.283925
Si  17.647921  25.875986  20.163662
Si  30.686289  21.182735  20.779496
Si   2.579367  13.485372   7.339143
Si   1.972707   5.786468   4.604956
Si  11.070399  23.616842  11.035675
Si  30.083836  27.129746  14.953870
Si  26.360279  13.665917  30.680335
Si  16.092514   8.884952   9.788654
Si  11.680050  18.353766  17.429939
Si  12.479182  18.305760   3.637745
Si  26.466702  19.822722   1.894090
Si  14.332523  24.869808  28.685790
Si  23.569555  29.204306  25.706300
Si  12.680824  12.196407  30.541881
Si  23.356203  28.233933   5.618319
Si  27.156199   0.810567  14.836829
Si  21.149534  11.819824  12.293536
Si  14.005094  10.201728   7.723075
Si  16.329606  27.204834  27.326832
Si   0.362768   4.141308  13.726620
Si   6.666036  26.952927  14.082994
Si  18.149698  14.115271  26.044692
Si  18.848390  14.025510  20.250780
Si  14.579859   7.300710  29.041961
Si   2.539920  24.335799  15.919338
Si  29.692351  15.885091   9.546420
Si  22.689419  17.212467  11.250558
Si   8.347388  14.543065  16.409549
Si  26.694661   8.218528  12.592348
Si   4.434430   6.039868  14.363910
Si   6.934466  14.154121   9.727581
Si  16.831349  23.755790  22.478879
Si  18.034719  19.630194  11.726912
Si  15.512947  16.555016   5.607173
Si  24.839108  17.901868  24.654931
Si  18.970115   6.434998  20.042873
Si  19.063240  22.755851  14.694490
Si  19.206688   0.242674  18.907111
Si  22.241009  27.781912   2.728117
Si   5.004538  24.711847   9.594759
Si   1.092982  13.322860  22.913508
Si  21.142248  23.355230  17.476055
Si  11.390665   2.631295  21.897843
Si  18.030165  29.194796  29.600630
Si  24.776254  17.712233  13.770020
Si  24.764532  29.531868  14.523985
Si  27.096102  29.129569  24.961279
Si  15.447891  13.184779   6.087792
Si  22.315919  13.017644   9.863386
Si   5.595931   3.197428  22.851692
Si  23.387314   4.389315  11.687946
Si  17.149008  15.053710  10.066141
Si  15.211204  25.864065   9.264749
Si   6.125120  19.500720  17.065873
Si  10.031139   4.176148  28.838908
Si  10.367964  19.831373  12.867771
Si  17.983382  11.273923  12.695651
Si  13.784762  15.703157  27.606186
Si   6.319522  19.783940  12.748406
Si  15.768646  17.980326  10.653080
Si  22.879929  23.375587  21.252104
Si  30.687343  25.705334  11.391194
Si  14.123975   7.847930   2.867186
Si   7.896805  10.954237  28.340565
Si   6.614951  17.945350  22.418194
Si  18.762173  19.871517  14.725652
Si  11.906522  26.137460   9.452428
Si  14.666606  20.600738   1.298213
Si  27.625512  11.915314  21.100894
Si  18.116041  14.362222  15.698574
Si   8.910064  17.495154  24.594761
Si   3.163330  15.106771  30.153326
Si   6.776570   8.432264  24.191476
Si  18.430169  25.860129  15.116034
Si  22.621557  28.414114   8.384517
Si  27.343948  17.496067  20.880129
Si   7.399250   3.557205  18.165573
Si  26.778365  18.393396   5.079386
Si   5.876591   5.675262   8.327419
Si  23.054373  24.915240   5.517836
Si  30.189940  27.554220  28.511742
Si  13.239414  19.756180  27.568513
Si   2.183831  29.767965  27.503317
Si   2.307248  13.526626  14.844651
Si  18.763135  18.390289   7.859373
Si   8.156145  13.084680  22.366791
Si  15.282269  27.051572  23.518510
Si   0.392203  10.075002  29.018769
Si   6.531555  10.953483   9.072995
Si   0.374303  26.755690   1.413423
Si   6.705431   5.891614  22.462252
Si  27.233717  23.492873   9.116809
Si  30.734598  17.129653  30.161377
Si  21.221416  24.276899  30.491561
Si  25.790148  24.137692   6.627413
Si   8.704855   8.921971  10.230032
Si  21.577163   1.803676  12.383227
Si  26.396845  23.414872  23.691822
Si  29.919292  19.826683   1.321948
Si   2.357333  23.959420  26.062359
Si  13.573127   8.421053  20.662440
Si   3.132447  18.526975  17.947353
Si  30.213940  30.298757  23.743775
Si  16.179559  28.012534  14.001703
Si  18.432328  18.340650  25.346442
Si  25.390714  13.655032   3.255640
Si  20.250907   9.283288  20.752096
Si  29.187075   9.007280  14.436727
Si  20.301784   5.237865   9.527953
Si  14.034472  22.086512  22.540806
Si  15.619126  12.948843  11.893607
Si  27.550397  13.957243   5.533659
Si  29.951546  12.688818  27.569713
Si  18.477958  24.077277  28.979543
Si   3.661231  25.556581   1.146327
Si  15.680449   4.027310  18.588754
Si  24.449315  13.725786  26.279348
Si  13.667645  26.249671  20.475155
Si   6.925296  21.582753  25.372427
Si  10.964920  22.599042   6.959669
Si   4.622723  10.785316  11.701429
Si  21.701294   2.824696   4.482661
Si   0.476176   1.606880  17.949765
Si  24.654444  14.786299  23.461312
Si  25.476532  12.291626   9.473759
Si   4.444638   3.987916  16.900626
Si  19.980101   9.933347  23.903030
Si  14.484773  28.924966  25.987907
Si  22.370637  15.962121  21.542401
Si  27.636499  22.737868  20.839576
Si   1.150072   8.195997  10.992965
Si   3.085703  21.423796   5.527401
Si  25.629238   2.669870  19.106652
Si  26.335608  10.305344  30.243604
Si  15.109527   7.846999  14.613084
Si  19.542557  30.772330  16.182709
Si  22.960958   9.748045   1.578549
Si   4.099720  12.642200  22.285400
Si  28.957540   8.597673  24.802403
Si   2.319870   3.563000  25.948800
Si  26.665265  15.213483   8.348393
Si  15.720590  16.067583  30.390113
Si  28.023404   4.718665  19.386220
Si  14.401036  28.877596   8.211023
Si  16.118177   7.397891   5.587743
Si   0.273574   8.370340  21.037137
Si  10.597619   8.279579   5.197497
Si  29.520233   3.866657   8.193045
Si   7.273190  25.884604   7.387527
Si  18.054411  21.353298  20.647128
Si   0.963192   6.924709  17.696590
Si  18.158439   8.166423  13.099965
Si  24.357062  17.062519   8.534439
Si   7.700629  18.749546  19.525718
Si  23.005105   3.867826  17.443941
Si  22.533629   9.506247  11.902741
Si  26.187735  24.605981  12.301470
Si  27.589026   0.656751  17.651176
Si   2.113555  25.159707   8.817637
Si   7.412722   4.063522   4.404672
Si  13.636585  11.033720  18.276573
Si  19.450098   1.841871   1.913868
Si   3.192004   5.962525   9.317930
Si   5.934802   2.954934   6.667648
Si  18.352352  10.826862  25.935928
Si  18.360583  22.325928   6.681599
Si  11.604048  23.890075  23.643138
Si   1.575697  30.485982  11.911231
Si   1.626373  14.370697  25.990890
Si   6.046112  21.791342   9.671862
Si   4.695357  15.656359  13.827347
Si  24.728277  10.793126  17.269366
Si  29.444409  11.030517  16.547071
Si  26.884716  10.645174  23.951917
Si   1.600813   7.221389  29.585810
Si  15.145459  14.294157  16.007576
Si  18.032241  18.262556   5.018355
Si  25.084255   7.452298   7.905220
Si   1.986039  12.766818  10.255973
Si  16.940238  21.736214  17.680819
Si   8.139957  16.761584   4.756911
Si  15.754655  10.448856  21.737917
Si  20.667944  12.759495  15.229560
Si  10.933330  26.460860   1.319099
Si  20.626239  18.128383  21.208544
Si   4.151203  23.421030   3.597668
Si  28.670531  21.714932  25.321723
Si   4.001038  19.914095  28.864466
Si  25.090039  13.947297  18.372109
Si   7.958328   3.056329  26.360544
Si  22.877033  10.315747  21.305109
Si  29.252609  23.965718   2.148715
Si   2.981656  27.085924  22.177570
Si  25.473089  15.622249  28.227687
Si   4.506248   1.147419  25.237893
Si  11.052938   8.413551   8.166674
Si   4.561189  20.137990  23.758725
Si  15.166702  28.125608   1.826006
Si  19.958935  11.804047   5.864514
Si  15.968235  17.371837  18.800367
Si   8.932844  13.747080   2.621124
Si  18.410469   2.115652   8.197354
Si   7.087001  20.240907  28.253521
Si  24.254243   9.014734  24.216252
Si  17.002280  20.683539   3.406412
Si  21.667949  25.457536   8.357838
Si  12.206711  13.598747   2.851316
Si   5.930321  27.421667  20.922850
Si  28.629186   3.193753  28.077607
Si  11.456950  26.255467  28.677469
Si  12.952431  27.335415   3.824025
Si   9.032215  10.203131  22.445532
Si  30.641360  17.555270  14.095239
Si   9.955282  12.736011   7.137975
Si  11.780760   2.443597   0.394030
Si  23.531851  24.356779  16.072155
Si  20.501028  25.176770  19.627400
Si  13.825041   6.742363  25.966377
Si  11.904326   9.234760  29.450258
Si   7.546318  14.624903  25.013426
Si  22.026468   7.664387  25.250478
Si  26.353798  17.956520  17.842481
Si  11.585219  24.813980  14.098816
Si   4.374704  16.863193  27.951623
Si   7.663338  18.722336   7.456004
Si  10.231645   0.428671   2.219304
Si  27.012147  30.401284   2.182132
Si   9.093850  10.445662  18.882912
Si   6.122254  25.605363  24.429665
Si  27.648459  26.479867   5.654861
Si  10.110857  21.100037  21.908257
Si  13.901392   4.884151  10.891519
Si  23.382687  14.307449  15.829513
Si  13.660677   8.076066  11.679505
Si  10.410384  20.734212   3.052826
Si  10.960678  27.604475  15.628532
Si  30.580875  18.115445  21.389965
Si   3.798847  15.275157  10.473073
Si  14.386808  23.256765  19.503585
Si  30.792323  15.053182   5.590139
Si  16.675811  24.706995  17.384340
Si   2.977833   5.385501  19.492578
Si  25.277584  27.866466  28.276025
Si   2.198664  26.950280  13.696708
Si   0.859785   7.905618   2.275845
Si  10.835373  15.736327  11.664006
Si  25.640721   9.516122  19.828373
Si  24.568635   0.763340  20.990378
Si  30.259044  18.139823   5.760757
Si   2.251456  21.188563  19.093975
Si   4.513428  15.335244  25.542590
Si   4.398632  29.223102  14.225194
Si  22.250631   7.634265   9.368345
Si  15.818062  22.041686  12.181164
Si  28.293490  13.480511  14.849843
Si  23.084760   3.453192   0.344423
Si  11.489021   9.046562  26.350656
Si   6.211070  24.230116  27.112672
Si   4.794738  23.220137  19.495972
Si   5.184037  26.007497   5.034968
Si   3.359133  15.695537  19.606960
Si  15.059452  18.353551  25.845310
Si  16.535870   0.330755   5.947774
Si   4.533010   4.783312   3.042210
Si  16.064927   6.281518  21.107716
Si  27.731382   7.104782  20.713378
Si   5.026275   1.196538  12.712003
Si  15.206773   1.250495  24.778547
Si   8.618181  25.120441  28.719994
Si  15.619812  29.817626  16.819853
Si   3.422977  12.151164  29.911410
Si  13.747093  16.313388  20.545954
Si  21.197523  22.263832  26.006471
Si   3.010435   0.492438  30.274076
Si   7.901105  11.285199   1.018838
Si  19.055324  11.315090  18.562452
Si  19.452052  17.882161   1.881282
Si  19.473053  24.471147  24.018580
Si  14.089256  16.379112   2.696789
Si  14.153230  13.209563  25.320460
Si  29.863181   3.784623   4.998314
Si  18.984353  25.448288   5.344440
Si  20.419633   9.047538  27.852007
Si  23.083472  24.798150  12.917420
Si  16.930622   4.864862   3.686416
Si   1.313912   7.196651  13.936191
Si  15.473852  22.475509   5.618179
Si  28.605342  29.792486  12.756092
Si  24.979225  12.316761  14.853381
Si  19.419811   3.346781  29.420193
Si  15.026777  23.745742   1.355126
Si  17.494447  18.413948  21.382477
Si  21.241505  10.338195   8.265394
Si  10.886800   4.711090   6.745229
Si  21.136130  20.054390  10.831372
Si  25.848431   3.437949  13.807489
Si  24.699105   6.022813  15.987021
Si  20.329058  12.784455  30.838398
Si   6.630297  28.574596   9.053835
Si  27.008715  29.939840  21.453777
Si   8.257343  27.036612  11.484601
Si  27.785855  27.116522  11.235353
Si   4.118660  10.293689  24.357051
Si  22.500088  29.971522  23.133438
Si   9.394609   5.032637  24.413385
Si   6.233508  22.022216   1.571059
Si   6.588304   1.034882  20.517542
Si  28.492500   8.524159  10.283906
Si   8.301296  21.271496   5.638709
Si  29.284561  14.152757  30.617813
Si   9.402139  16.599972  18.797913
Si  29.184594   7.072081   7.506561
Si  28.117350  18.421029  25.539428
Si   1.054884  10.297794  23.953273
Si   5.677837   7.109045  20.392454
Si  23.548682  27.614206  16.461302
Si  25.354305  10.951440  11.963162
Si  17.277492  30.160605   3.453391
Si  29.871729  24.195341   5.258492
Si  20.676259  27.952571  14.985939
Si  22.826287  25.101324  25.741918
Si   3.934193   3.691282  30.809619
Si  18.233205   9.748465   4.447861
Si   1.046379   2.176589   9.495408
Si  16.802535  18.761627  30.169472
Si  10.354300  14.747500  20.897700
Si  28.724719  27.898378  17.891569
Si  30.552469  19.857082  12.269444
Si  17.153562  30.495332  21.236299
Si   5.730302  12.856938  13.862215
Si  23.852842   6.915713  13.173951
Si   0.759399  13.520898   2.758052
Si  20.085343  13.697767   3.552110
Si   2.073189   8.032167   7.171865
Si   9.238532  15.982144   0.385547
Si   4.938172  10.687674  27.541619
Si   0.606663  22.473642   7.806927
Si  11.161367  14.432378  28.670665
Si   1.682111  19.472328   3.502934
Si   4.692259  15.696130  22.422155
Si  24.785600  21.328073  19.955329
Si  20.484090  18.595980  28.151930
Si  18.948639   5.309840  12.428833
Si   7.871872  10.542572  13.056919
Si  12.351643   2.635155  24.470197
Si   1.275281   4.322302  28.756608
Si  24.289802  18.790303  21.648530
Si  18.942894  27.775528   2.116140
Si  13.684635   0.765007  10.041041
Si   3.132258   3.868565  12.677073
Si   4.294963  14.371595   2.299559
Si  14.596268   2.589313   4.390824
Si  29.964986  10.987088  19.609819
Si   0.394370  25.570675  21.967500
Si   4.696290  19.611419   7.670873
Si  20.961240  24.055477   3.504272
Si  26.465035  14.707947  20.720159
Si  12.192688  23.544059  17.165178
Si   2.076018  25.952474   5.830534
Si  27.758017  15.508464  17.030869
Si  11.038941   7.966369  21.916917
Si  11.454832  11.705011  24.688829
Si  25.655276   6.197887  22.904310
Si  21.933861  30.682223   0.500182
Si   7.170444  28.428413  23.791102
Si   8.173386   4.037769  11.602768
Si  21.079923  22.565956  11.883376
Si  14.209027  18.279095   8.078071
Si  21.344139  10.341665  17.070797
Si   8.149378  25.303083  19.513423
Si  17.760256   2.543865  22.960895
Si  10.923121  16.377387   5.548891
Si  13.347498  20.405150   6.092499
Si  28.693469  21.399291  16.578847
Si  12.887665  30.139400  16.095813
Si  15.988518  19.240995  16.084035
Si  21.980167  14.627936   7.139565
Si  17.216833  24.708896  11.273379
Si   2.798620  29.012777  24.679594
Si  19.094455  23.559576   9.385222
Si  15.393887  10.622054  26.632098
Si  17.228934  25.672976   0.887436
Si   4.770280  11.547042   2.021182
Si  16.003966   5.034240  23.609536
Si   1.992551  10.105208  16.391772
Si  15.604639  11.091341  29.681051
Si  17.624373  13.853276  29.219387
Si  19.183917   3.966863   5.731501
Si   8.522601   5.776729   9.040307
Si  11.461504  28.994318  26.945434
Si  30.174110   4.361930  16.794292
Si  21.585543  27.506693  12.115000
Si  28.310668   3.902449  12.134610
Si  16.123733  28.372881  19.503398
Si  23.613422  29.819841  11.493478
Si   4.391386  23.774277  29.664653
Si   0.661418  23.213936  23.484088
Si  11.457636  12.498044  19.076012
Si  10.247806  27.633537  24.608029
Si  20.521166   1.790074  24.369718
Si  16.895078   1.474878  10.412396
Si  28.413890  10.889098   5.668273
Si  25.514436   1.075684  25.860092
Si  22.007881  17.428725  15.234886
Si  22.417744   1.463246  15.540978
Si  27.984280  18.680664  10.821809
Si  12.306243  13.487236   5.778574
Si  11.084847  13.207884  15.979004
Si  29.530225   3.095392  25.016941
Si   5.142462  24.529205  12.666086
Si   6.795628  22.306670  17.083153
Si  12.016236  29.501008   6.093729
Si   5.943065   7.319366   5.698736
Si  22.696741  15.756010   3.582270
Si  27.251447   8.621304  27.835388
Si  23.959769   4.616292   3.579460
Si  20.571600   7.840348   3.350728
Ca   8.979538   6.936435  19.162180
Ca  20.147358   8.686324   0.332403
Ca   7.439294  21.296576  20.121334
Ca  29.559017   7.012000  27.068384
Ca  21.657773  27.564783  28.602764
Ca  22.872247  17.421469  18.250760
Ca  30.146152   1.702696   1.040464
Ca  21.619046  17.623829   6.469680
Ca  28.630735  26.102795  21.105015
Ca  26.163334  22.245861  14.843366
Ca  10.905861   6.436934  10.925371
Ca  11.905969  22.772290   0.074388
Ca   0.464739  19.125755   8.892638
Ca  22.568430  28.479732  19.587926
Ca   5.728051  25.245817  16.590354
Ca  29.123180  16.111651  27.118025
Ca   7.844501  18.993742   1.637979
Ca   8.098211   1.183412  11.891551
Ca  29.932899   2.227551  20.972982
Ca  15.840470  21.587670  27.837105
Ca  12.284637   6.045239   0.528365
Ca  25.949924  28.151741  19.124654
Ca   5.685787  15.333674   6.999892
Ca   1.263777  29.407005   6.141424
Ca  15.576618  13.248967  19.282330
Ca  12.509302  29.246917  30.362109
Ca   2.839350  12.528400  18.798200
Ca  22.162024   1.629930   9.597630
Ca   8.451009  14.254045  13.276492
Ca  14.627839  31.924942   0.363614
Ca  22.514761  13.206130  19.544750
Ca  13.780185   1.030694  28.191233
Ca  15.066163   4.384402   1.247395
Ca  23.497914   8.167670  28.239248
Ca  10.921543  24.018795  20.150902
Ca  13.570196  24.593379   7.250496
Ca   2.458696  28.930894   3.125313
Ca  24.314897   1.000395   3.138412
Ca  26.340633   5.141959   5.831614
Ca  12.300308  23.611524   4.038260
Ca  25.390859  20.104651   9.071029
Ca  16.778149   9.078115  18.700282
Ca   3.802316  26.942730  27.657813
Ca  18.729947  31.741710  12.579588
Ca  23.378840  22.717045   9.701706
Ca   8.830043  24.833397  16.177872
Ca  29.520926  15.343635  23.697502
Ca  10.702798  16.685073  14.440431
Ca  26.215640  29.260815   8.782785
Ca  19.982893  15.921545   9.357840
Ca  30.024123  10.874237   8.652655
Ca  23.273627   3.848031  24.351829
Ca  22.014591  26.434506  22.084297
Ca   8.876876  23.664807   8.943210
Ca  21.715964  13.004786  22.890840
Ca  18.871916   8.438489   9.121334
Ca  28.673108  31.132832  27.675447
Ca   9.311309  24.098314  25.552630
Ca   1.234898  29.145331  16.706503
Ca  20.568294   3.983615  26.244219
Ca  18.023101  23.761307   3.560094
Ca   9.546930  12.844700  10.265900
Ca   9.106700  15.975851   8.548956
Ca  17.742199   0.655333  26.636860
Ca  31.680341  14.233447  12.469786
Ca   7.238998  23.770177   4.852147
Ca  26.880118   2.132950   3.862773
Ca  26.469335   4.578235  25.457366
Ca  12.378539   2.088857  19.112506
Ca  10.797267   2.953041   9.784029
Ca  11.222333  10.322581   2.101685
Ca  22.761700  11.388798   4.673767
Ca  18.317060  14.573311   6.731514
Ca  10.254400  17.595544  27.422815
Ca  23.042126  17.332524  27.525659
Ca  16.184441  23.730395  25.601166
Ca   7.730339   9.167323   3.357167
Ca   2.201573   1.228893  15.157850
Ca   9.783482  20.176429   9.445688
Ca  21.434672   0.327560  28.046884
Ca  19.698971  28.391636  20.712307
Ca  12.734483  18.043498  11.265127
Ca  15.530452  26.150616   5.638760
Ca   0.921160  15.537656  17.250562
Ca   3.034200  17.901027  11.729562
Ca   7.115267   7.297361  16.403281
Ca  29.967573  23.797069  18.455600
Ca   3.094740   7.873883  21.950958
Ca  28.447893  20.498008   7.608391
Ca   4.525829   9.589449  14.265850
Ca  21.614295   8.485079  14.707639
Ca  16.340722  16.727826  13.570234
Ca  26.564522   2.980805  22.613075
Ca  11.503505   8.549845  17.731874
Ca  10.656108  26.092112   6.174477
Ca   2.447549  16.444235   7.737777
Ca  28.695152  22.023493  29.026164
Ca  27.512170  18.940577  14.158559
Ca  12.436299   5.470907   4.326436
Ca  20.786903  20.770230   4.291722
Ca  14.975139  16.046117  23.152915
Ca  12.756192  19.622469  20.783461
Ca  21.715442  20.969059  20.375869
Ca   9.411890   0.465604  24.076804
Ca  13.462440   8.980897  23.920204
Ca   8.545782   9.707140   6.812056
Ca  28.173561   6.817550   3.714164
Ca  27.635571   7.978740  17.129355
Ca   1.903417  11.175796   4.947723
Ca  18.850586  21.167793  30.362484
Ca  29.074081  22.100916  10.697237
Ca   1.210008  17.804112  24.566291
Ca  12.023884  18.610580  31.476872
Ca  20.535653  21.369479  23.332232
Ca   1.460827  10.832923  12.670027
Ca   8.641852  22.718068  13.521820
Ca   4.354267  18.107338   0.795181
Ca   6.459180   5.555286   0.576100
Ca   4.265440   1.394029   3.541232
Ca  24.497857  24.655603  28.735628
Ca  25.714379   1.881483  29.717863
Ca  27.391892  15.938140  12.952796
Ca  29.237759  10.850733   1.613172
Ca  18.475715   7.985728  16.625289
Ca  10.548893  26.980486  21.545756
Ca  18.696057  21.204842  26.963781
Ca   9.943821   1.349975  17.122791
Ca   5.680022  22.340031  14.342073
Ca   3.265041  31.037821  20.655849
Ca  20.512980  20.422616   7.676428
Ca  10.510128  10.503389  11.775555
Ca  19.160283   3.533977  18.351302
Ca  16.836284   5.174715   8.605568
Ca  16.387526  11.278653  16.146659
Ca   4.175122  23.374745  22.942765
Ca  13.572964   3.055893   7.220135
Ca  23.156992  11.505275  29.100744
Ca   5.770416   5.760972  27.707069
Ca   7.015358  29.775051  26.169901
Ca  12.532919  23.112168  27.393476
Ca  18.683108  15.771032  22.853285
Ca   8.441574  17.285899  11.060724
Ca  21.384408  31.401521   5.846216
Ca  26.135762  21.854825   4.357395
Ca   3.930087  18.725674  14.814427
Ca  29.314605  23.191811  14.173783
Ca  12.303066  30.164308  22.486257
Ca   7.609725  27.651973  17.209777
Ca   2.476082  26.203075  19.298181
Ca  13.702696  17.332397  14.318885
Ca  13.049683  13.102467  21.901061
Ca  10.868687   0.428833   7.813837
Ca  29.989555  18.613349  17.666214
Ca  15.429433  23.613261  14.717632
Ca   8.783404  28.858429   5.650859
Ca  17.472141   2.445174  16.039654
Ca  22.111154  21.179902  28.936557
Ca   2.871508   3.569543   6.730445
Ca  21.792595  18.461644  24.934897
Ca  13.785935  26.254959  15.691827
Ca  23.484976   4.864064   7.799103
Ca  14.053325   2.158886  15.793758
Ca   3.667108  10.332434   8.253621
Ca  29.904380  14.582238  19.938378
Ca  24.948932  26.206096   9.790218
Ca  13.439123   6.985077   7.986912
Ca   9.477794  23.074418   1.384034
Ca  29.798132   5.777205  22.795345
Ca  13.058422  13.891236  13.604481
Ca  20.755866  27.627054  24.916356
Ca   8.521434   7.807419  29.577758
Ca   8.900894  20.278709  15.650099
Ca   6.215899  13.399059  18.923182
Ca   8.298775   3.853142  14.799177
Ca   6.793709  25.444818   1.200804
Ca   3.841439  30.465524   9.377137
Ca   4.589471  13.874029  16.884798
Ca  24.500923  15.722128   5.680609
Ca   5.852939   2.217041  28.148893
Ca  29.419890  26.471291   8.377797
Ca  28.220543   7.877667   0.675446
Ca  11.914475  15.568127   8.695274
Ca  16.222010  20.361184  24.020427
Ca   9.517669   4.743375  20.999305
Ca  21.079014   6.287237  30.147751
Ca  22.175962  11.442558  26.171120
Ca  14.361671   2.305476  21.330729
Ca  24.107270  19.102977   5.649057
Ca  16.012594  21.078298   8.445962
Ca  12.753835  19.032017  23.747473
Ca   2.349989  21.510626   0.360505
Ca  17.751471  28.178066  10.717631
Ca  12.825421  15.655115  17.477920
Ca  11.293636  27.195058  18.202574
Ca   8.596887   0.758174  28.918437
Ca  19.753800  15.743600  12.703700
Ca  23.715473  22.277888   0.874141
Ca  17.952701   6.801094  29.010768
Ca  21.535519   6.250191  17.789210
Ca  19.788339   4.896673   1.538281
Ca  26.909319  29.531278   5.612413
Ca   9.990814  20.706046  25.133272
Ca  20.184082   6.198295  23.040355
Ca  30.522588  29.324545   3.634597
Ca  24.563245  27.864330   0.548847
Ca  10.943391   1.860008   5.135224
Ca  22.228530  20.892751  14.745389
Ca  30.461410   5.615844  10.860029
Ca   7.674068  17.549549  13.934902
Ca  30.578833  19.653600  27.996902
Ca  27.764353  27.291164  30.622941
Ca   4.733944  10.898825   5.632234
Ca  20.520765  19.375727  17.716345
Ca   5.717582  29.327494   2.023739
Ca  28.668233  25.535529  23.811507
Ca  12.933371  20.644482  14.826839
Ca   5.245639  20.480634   3.907766
Ca   6.498384   1.071783  16.050086
Ca  26.582847  24.590782  17.796586
Ca   7.363941   7.272050  13.234294
Ca  25.638844  10.189774   3.049695
Ca   7.278045  11.569464  16.515812
Ca  16.466029  12.876203  23.197948
Ca  13.227700  10.027300   4.379340
Ca   3.393045  27.239342  10.801382
Ca  25.495996  27.101436   3.440474
Ca  24.578098  16.660288   0.880362
Ca  24.172387  20.820025  25.032621
Ca  20.080046  29.608461   9.459787
Ca  26.177421   4.297908   9.465617
Ca  26.548681   5.677816  28.941210
Ca   7.360474  23.134069  22.121492
Ca  10.203912  21.104048  18.157783
Ca  27.072079   1.019398   9.928533
Ca  21.881699  16.108705  30.779619
Ca  11.527111   2.186639  13.042367
Ca  12.782298   5.274076  23.218560
Ca   2.831554  21.482747  12.156494
Ca  16.566249   8.475165  24.022675
Ca  21.548274   2.841384  21.046420
Ca  18.039071  11.983898   9.028862
Ca  26.306496  18.605313  29.081748
Ca  30.625837  28.963226  20.602677
Ca  28.644419  11.911698  11.671790
Ca   5.898865  10.375739  20.669817
Ca   4.024432   8.503037   2.564504
Ca  13.356411  10.517201  14.816455
Ca  25.073385  26.608170  24.196897
Ca   4.913630   2.905165   9.536120
Ca  13.996578  29.716590  12.156884
Ca  17.475370  14.735562   1.868342
Ca  26.673874  25.330644  26.655989
P    4.865595   8.238355  29.855555
P   26.196351  24.870805   1.714961
P    9.416412  13.002491  26.469659
P   24.943111  20.438199  12.361788
P    8.453323  27.018314   3.226832
P    7.831672   0.889778   8.266706
P   18.373733  28.366246   6.990563
P   16.347468   3.235527  28.532052
P   13.390057  21.695609   9.937370
P   24.979089   7.194961   2.270457
P    8.757156   7.283227  26.345818
P    7.429428  12.835264   4.906051
P   17.939417  28.434337  23.582886
P   12.477795   4.079822  27.155512
P   11.784409   4.954680  14.142388
P    4.913828  10.094152  17.678835
P   27.747882   4.290339   1.140739
P   29.647084  30.006737   8.033542
P   23.620576   4.535126  27.969616
P   20.871587  15.046103  25.332540
P    4.978598  16.794848   4.634933
P   24.804889   1.845555   6.951099
P    7.064807  27.967402  28.949501
P   25.758139  10.276772   7.051282
P   24.969926  25.751177  20.966406
P   10.344050   5.190450  16.788722
P   18.920279  25.887314  26.966755
P   25.602816  21.727897  28.146835
P    5.028125  29.352641   5.279803
P   27.328663  13.491854  25.496796
P    8.981749  30.022475  14.503610
P   16.372838   8.601891   0.603059
P    9.264802  30.080774  19.913001
P    1.747409  21.414133  15.690723
P   24.348252  20.354009  17.025871
P    1.241157   1.650088   4.473635
P   30.087944  24.527524  27.022100
P    2.426560   3.206366  22.078922
P   11.395701  15.759828  23.608572
P    9.203249   6.198793   2.810075
P   23.166509  21.599856   6.380561
P    7.217274   1.925604   1.206647
P   11.075370  28.739117  10.972379
P    9.785726  21.512113  28.769977
P   22.145332  19.694362   1.663898
P   16.044781  11.682423   3.256376
P   19.795833   5.262924  15.369817
P   22.935956   5.965617  21.179152
P    4.673245  28.500079  18.083917
P   17.988182   6.223287  25.702421
P    9.764902   9.513615  15.147130
P   14.962913   6.691770  17.270789
P   20.444013   6.851565   6.293302
P    3.253353   6.502634  25.458178
P   18.621610  16.175750  18.123305
P   13.032566  12.503274  10.003453
O   23.903245  12.918152  10.063492
O   11.739421  15.073267  22.133107
O   10.315889  21.103877  14.251154
O   18.497945  28.011347   8.746370
O   17.220246  27.616910  28.826456
O    5.384730  27.777642   4.724572
O   27.090921  11.818261  22.725935
O   20.068842   1.949634   8.207867
O    2.175195   5.242068   7.977894
O    7.817976  21.696170   8.887910
O   17.885902   9.732917  11.659982
O   20.404054   2.530179   6.074827
O   12.653263   7.925857  25.467710
O   14.503308  28.292181  24.415058
O    9.275911  13.009233  15.317789
O   18.616552   0.850258  14.810839
O   27.288714  28.898606  11.683533
O   23.902568  31.963665  26.081725
O    3.592614  16.882565   9.944177
O   12.366577  10.454660  30.600721
O   15.128714  25.074924  16.804224
O    5.941669  28.376341  14.504074
O   19.908427   7.933079  29.165271
O   21.651111  14.174248  16.400649
O   10.468789  23.282259  17.758770
O    4.442009  20.128021  12.927065
O   30.241081  19.004684   7.625577
O   24.853006   2.462811  20.555963
O    5.494213  24.126334  28.550271
O   14.693966  18.209951  24.020668
O    9.758720  26.874180  16.856186
O    7.280821   9.444706   8.944600
O   27.534477  12.233160   5.547071
O   10.414890  17.152083  23.385814
O   29.826125  18.092043   0.501463
O    0.241235  28.226104   2.619476
O   21.217844  19.364213  22.645405
O    6.539912   2.285892  21.776691
O   17.507796   2.921946   9.541993
O    9.474715   0.777282  14.400897
O   11.359517   9.950203  24.960170
O   22.910568  16.269497   7.718911
O   10.830905  25.214397  22.690129
O   26.199932   1.127019  18.775466
O   13.304518  11.643016  19.920660
O    5.492285   7.287072   7.582847
O   27.446243   2.598051  11.226957
O    0.894751   4.477832   4.869869
O   14.709580  27.581554   3.454468
O    4.697729  26.761736   2.403411
O    7.842850   5.328603  12.760332
O    5.360634   4.952839  23.691968
O   17.783669  31.152097  10.080708
O   19.641919   5.827693   5.498370
O   20.256248   1.241265  11.678682
O   16.888763  12.166645  29.153420
O    8.594683  19.934737   6.818326
O   28.068579  14.965185  15.442807
O   27.116749  26.952495   9.395407
O   14.179421   7.841290  13.257705
O   24.454449  25.293006  26.357811
O   26.483183  26.365746  12.073855
O   26.181177   7.507240   3.560454
O    7.509194  25.020869  23.656905
O   18.677827  20.108407  24.278961
O   10.709470  14.740312  24.862244
O   19.825301  23.164727  13.152465
O    2.850568   6.920488  14.592156
O   29.122894  15.899118  30.101733
O   26.129149  16.732610   9.223417
O   28.012292  30.200242   8.755422
O    2.040382   7.167163  19.202432
O   28.745229  12.903474  26.157706
O   17.309774   3.356829  18.410241
O    2.591116   3.714086  27.716315
O   20.024735  28.137912  11.409698
O   24.226505  23.837874   6.126218
O   19.719723  14.800274  26.262923
O   17.310554   8.667821   5.320763
O   25.648270   7.506442  27.244720
O    6.541854  24.800349   8.566629
O   24.165223  21.421228  13.573421
O   11.615695   9.810930  27.884179
O    6.676770  16.196941  22.221744
O    8.830240   1.290178   1.071085
O   25.491821  21.552216   2.333330
O   13.437699  30.258314  14.303749
O   25.763192  24.727846   3.527927
O   13.002198  17.391705   9.037473
O   21.636513  22.590390   6.319287
O    8.007251  25.377966   3.382350
O   14.964344  24.334927   5.566730
O    5.130016  23.174032  10.401494
O   19.695407  29.758015   7.003227
O    9.138076   8.509677  11.989474
O   26.456786  24.191449  10.577366
O   16.723608  27.871970   6.554646
O    8.819386  12.923086   5.945231
O   22.047672  22.609728  22.484860
O   22.789251  19.615592  17.473403
O   21.433647  25.748176  26.841861
O   12.091569   3.356310  23.074090
O   17.413753  14.327409  27.674408