1960
Frame 1 Step=3000 T=8000K E=-19604.4eV Box=32.068A
Si 7.186976 17.323570 29.191027
Si 16.489382 3.547349 12.546659
Si 2.739208 20.623813 26.114060
Si 17.497335 25.627717 20.179153
Si 30.444134 21.331117 20.949609
Si 2.326958 13.548222 7.423898
Si 2.034881 5.829597 4.502523
Si 11.230001 23.791135 11.082888
Si 29.641286 27.172732 14.912138
Si 25.923601 13.483407 30.843769
Si 16.074126 9.192024 9.940707
Si 11.674146 18.571225 17.380892
Si 12.306091 18.481234 3.712201
Si 26.866480 19.849546 2.012383
Si 14.226628 24.959382 28.818107
Si 23.624466 29.494933 25.994626
Si 12.760558 12.158276 30.354704
Si 23.350497 28.292415 5.436661
Si 27.180047 0.962363 14.833270
Si 20.880139 12.102658 12.209085
Si 13.884751 10.214439 7.873407
Si 16.287164 27.197885 27.869014
Si 0.493746 4.228880 13.909904
Si 6.646436 26.938934 14.170158
Si 18.218875 13.974742 26.143341
Si 19.015070 13.865911 20.343798
Si 14.386438 7.423364 29.005681
Si 2.505219 24.465960 16.075045
Si 29.758254 15.639796 9.700958
Si 22.559154 17.689181 11.172035
Si 8.484939 14.586144 16.461234
Si 26.617229 8.179897 12.491004
Si 4.346595 6.352524 14.738520
Si 6.731927 13.931808 9.485681
Si 17.072522 23.735209 22.557455
Si 18.082553 19.887527 11.884304
Si 15.748739 16.303307 5.637472
Si 25.049276 17.881353 24.433943
Si 19.090034 6.697915 20.123774
Si 19.145948 22.979708 14.673229
Si 19.616874 0.435063 19.087806
Si 22.364915 27.975299 2.572128
Si 5.096527 24.818822 9.698251
Si 1.321205 13.069409 23.280715
Si 21.147543 23.130956 17.159779
Si 11.458888 2.708885 21.931076
Si 17.884456 29.119958 29.648720
Si 24.494832 17.801086 13.657868
Si 24.896208 29.539161 14.460084
Si 27.388190 29.232816 24.665395
Si 15.518929 13.360635 6.077986
Si 22.435850 12.816578 9.615745
Si 5.343682 2.972344 22.795828
Si 23.512542 4.374661 11.769750
Si 17.201694 14.748379 10.197608
Si 15.137285 26.134525 9.571120
Si 6.065569 19.464827 17.161324
Si 10.053798 4.329184 28.972562
Si 10.506661 19.580774 13.168426
Si 17.915029 11.121470 12.651626
Si 14.055769 15.805434 27.588269
Si 6.400602 19.938959 12.538233
Si 15.966127 17.619361 10.327087
Si 22.876488 23.522563 21.316468
Si 30.594114 25.675746 11.390643
Si 14.200623 7.816315 2.877264
Si 7.909624 10.948702 28.320775
Si 6.582284 18.265158 22.466974
Si 18.688074 19.919495 14.674031
Si 12.326355 26.076102 9.569079
Si 14.699585 20.595333 1.373313
Si 27.551638 11.836091 21.108325
Si 18.218575 14.451958 15.709635
Si 8.645184 17.584405 24.654295
Si 3.156992 15.068100 29.908523
Si 6.737199 8.578337 24.106005
Si 18.401965 25.944317 15.006839
Si 22.686885 28.428705 8.352597
Si 27.527160 17.774662 20.482607
Si 7.398797 3.407242 18.100925
Si 26.988339 18.603694 5.090173
Si 5.866394 5.611567 8.466359
Si 23.064789 25.028669 5.641106
Si 30.215007 27.525382 28.521102
Si 13.223744 19.807356 27.639024
Si 1.901230 29.560432 27.759217
Si 2.342606 13.760386 15.096129
Si 18.683765 18.305359 7.703445
Si 8.000300 13.035404 22.373098
Si 15.238131 27.030830 23.606542
Si 0.517972 10.066725 29.217985
Si 6.568830 10.966841 9.258475
Si 0.373049 27.029033 1.336288
Si 6.916350 5.754517 22.711737
Si 27.166719 23.697736 9.153191
Si 30.605738 17.035056 30.137041
Si 21.104617 24.473487 30.487286
Si 26.056836 24.396483 6.452294
Si 8.429164 8.564882 9.903825
Si 21.617664 1.563672 12.330333
Si 26.384016 23.003084 23.704512
Si 29.870574 19.787313 1.263038
Si 2.354842 23.825307 25.906737
Si 13.722506 8.500852 20.616879
Si 3.327943 18.493159 18.161253
Si 30.138243 30.284354 23.922214
Si 16.353248 28.276499 13.915816
Si 18.500374 18.458686 25.660012
Si 25.292029 13.709879 3.400708
Si 20.314466 9.135095 20.625901
Si 29.058050 9.058324 14.614132
Si 20.486957 5.230355 9.683830
Si 13.993974 22.602907 22.449555
Si 15.649702 12.866291 11.776784
Si 27.573384 14.076559 5.403200
Si 29.914868 12.649121 27.731721
Si 18.509193 24.049685 29.074179
Si 3.350060 25.700398 1.626782
Si 15.555928 4.063028 18.900069
Si 24.657479 13.794759 26.327633
Si 14.022644 26.325128 20.648847
Si 7.024220 21.550366 25.462091
Si 11.038054 22.453295 6.700666
Si 4.334824 10.903276 11.638401
Si 21.473602 2.974310 4.168091
Si 0.467575 1.516307 18.020152
Si 24.821636 14.844900 23.685936
Si 25.496063 12.577669 9.492623
Si 4.512604 4.081226 17.015614
Si 19.921960 9.735045 23.773270
Si 14.887222 29.158792 26.137952
Si 22.676262 16.117102 21.480517
Si 27.689832 22.701816 20.923331
Si 1.346195 8.241130 10.955918
Si 3.071297 21.442837 5.590598
Si 25.668130 2.670173 19.229326
Si 26.197556 10.469182 29.953450
Si 15.319975 8.026832 14.370964
Si 19.612441 30.585595 16.022100
Si 22.918578 9.517476 1.781632
Si 4.306836 12.692913 22.167896
Si 28.799617 8.442934 25.181964
Si 2.324818 3.570599 26.004145
Si 26.804849 15.153251 8.301157
Si 15.675462 15.989931 30.134936
Si 28.037573 4.755066 19.132895
Si 14.492055 29.404231 8.247215
Si 16.033524 7.531098 5.307496
Si 0.396444 8.343838 21.062370
Si 10.567791 8.253115 5.237136
Si 29.406343 3.790860 7.996294
Si 7.411616 26.140014 7.446230
Si 18.027468 21.252432 20.679512
Si 1.210504 6.954864 17.779434
Si 18.174982 8.093335 13.223644
Si 24.258229 17.105205 8.527860
Si 7.680256 18.747601 19.638396
Si 23.219719 3.871109 17.493932
Si 22.664036 9.475797 11.900829
Si 26.281535 24.657679 12.168799
Si 27.692438 0.833103 17.790363
Si 2.328831 25.365970 8.566843
Si 7.123461 4.539071 4.561869
Si 13.333929 10.940197 18.688891
Si 19.339259 1.905910 1.923956
Si 3.091199 6.362401 9.249666
Si 6.015062 3.032334 6.726025
Si 18.425014 10.763708 26.133019
Si 18.418199 22.598096 6.751990
Si 11.609609 23.705553 23.424053
Si 1.109540 30.679622 12.095890
Si 1.446709 14.229630 25.973665
Si 5.983715 21.729848 9.666183
Si 4.685272 15.539172 13.919725
Si 24.751779 10.822734 17.337099
Si 29.313488 10.975459 16.690723
Si 26.878906 10.728834 24.085261
Si 1.882725 7.343159 29.569987
Si 15.138487 13.948628 16.490746
Si 17.959824 18.317084 4.795296
Si 25.125374 7.358882 8.149204
Si 2.074505 12.896648 10.266751
Si 16.649957 22.119743 18.034427
Si 8.117399 16.652397 5.073256
Si 15.581340 10.686631 21.707263
Si 20.760685 12.745727 15.215784
Si 11.013841 26.423337 1.543936
Si 20.600143 18.195125 21.338715
Si 4.178774 23.591109 3.686286
Si 28.715916 21.686255 25.342036
Si 3.884165 19.764601 29.261561
Si 25.061899 13.940483 18.273330
Si 8.029576 2.989753 26.589406
Si 23.209948 10.294469 21.265963
Si 29.172500 23.930986 2.081719
Si 3.227078 27.133749 22.314793
Si 25.565947 15.631179 28.389671
Si 4.441463 1.380448 25.181694
Si 11.134898 8.633415 8.311369
Si 4.707178 20.372359 23.860683
Si 15.266391 28.165144 1.995848
Si 20.016201 11.706615 5.846684
Si 15.904906 17.173023 19.020689
Si 9.028696 13.809691 2.532179
Si 18.448364 2.233433 7.987059
Si 7.027607 20.318945 28.254835
Si 24.297512 9.031692 24.157314
Si 16.827414 20.895973 3.513137
Si 21.659781 25.537553 8.521278
Si 12.145048 13.683422 2.878286
Si 6.039093 27.342393 21.039879
Si 28.701185 3.367317 28.069741
Si 11.509104 26.321646 28.756318
Si 12.780494 27.233174 3.715343
Si 8.980233 10.150503 22.447575
Si 30.559202 17.429350 13.803994
Si 9.837224 12.874193 7.235824
Si 12.114619 2.307789 0.615166
Si 23.697235 24.518383 16.075714
Si 20.788681 25.037958 19.536366
Si 13.791553 6.922383 26.099848
Si 12.012466 9.196222 29.435147
Si 7.311134 14.730243 25.144330
Si 21.790176 7.686259 25.395149
Si 26.366516 17.928457 17.882159
Si 11.647544 25.220891 13.781687
Si 4.625211 16.692787 28.196673
Si 7.610069 18.656665 7.551499
Si 9.977814 0.490971 2.171016
Si 26.968397 30.330252 2.192817
Si 8.997147 10.481470 19.139641
Si 6.146860 26.088713 24.400631
Si 27.803574 26.645810 5.845391
Si 10.213337 21.175668 22.074682
Si 14.158184 4.822479 10.802088
Si 23.284356 14.400749 16.040339
Si 13.739448 7.747519 11.554476
Si 10.276271 20.748960 2.993321
Si 10.836785 27.755668 15.657145
Si 30.292984 18.199045 21.342412
Si 3.885880 15.363398 10.754789
Si 14.100569 23.264223 19.881201
Si 30.730845 15.323441 5.718604
Si 16.896060 24.904905 17.379990
Si 3.111839 5.682498 19.439750
Si 25.083770 27.834918 28.244813
Si 2.084535 26.822597 13.982857
Si 0.967638 7.768664 2.297279
Si 10.873669 15.514805 11.736569
Si 25.952079 9.824113 19.879439
Si 24.288817 0.972916 21.069727
Si 30.092145 18.230500 5.816399
Si 2.721527 21.273529 18.831812
Si 4.221268 15.297604 25.589402
Si 4.328833 29.025575 14.288510
Si 22.504867 7.849649 9.254462
Si 15.865366 22.056042 12.112780
Si 28.297826 13.326162 14.928973
Si 23.146563 3.387951 0.582373
Si 11.328210 8.924474 26.357597
Si 6.266507 24.230871 27.079934
Si 4.806723 23.357575 19.642353
Si 5.027699 25.969121 5.091431
Si 3.458623 15.590647 19.658023
Si 15.430520 18.344587 26.428123
Si 16.175457 0.608123 6.191049
Si 4.494135 4.733285 3.180661
Si 16.118605 6.402657 20.921327
Si 27.503010 7.098661 20.743207
Si 5.178972 1.587455 12.491174
Si 15.101611 1.316027 24.453028
Si 8.676827 25.174980 28.674728
Si 15.825582 29.777475 16.857077
Si 3.186570 12.046670 29.593535
Si 13.631712 16.369038 20.526887
Si 21.455110 22.361945 25.972604
Si 3.197325 0.467541 30.208793
Si 7.935900 11.218877 1.193610
Si 19.126407 11.264875 18.629349
Si 19.227322 18.009229 1.938616
Si 19.512428 24.385600 24.155711
Si 13.838071 16.427690 2.799087
Si 14.190139 13.096051 25.384817
Si 29.681264 3.739802 5.293925
Si 18.949129 25.558496 5.402829
Si 20.547764 9.146027 27.934467
Si 23.232446 24.913022 12.839326
Si 16.826805 4.827017 3.798132
Si 1.685291 7.196237 14.056224
Si 15.426597 22.448416 5.716149
Si 28.731750 29.417108 12.814072
Si 25.198514 12.524728 14.756047
Si 19.249762 3.178671 29.340057
Si 15.279302 23.782911 1.141907
Si 17.404342 18.443553 21.451656
Si 21.209863 10.188269 7.943546
Si 10.857608 4.548992 6.834606
Si 21.250828 20.100881 10.919741
Si 25.879379 3.667425 13.943977
Si 25.015646 5.865914 15.930316
Si 20.224343 12.762457 30.481757
Si 6.674385 28.469592 9.105640
Si 27.145073 29.854640 21.540745
Si 8.254227 27.068209 11.392547
Si 27.724891 27.051300 11.223499
Si 4.168762 10.396928 24.539828
Si 22.633924 29.773314 23.245382
Si 9.480623 5.088203 24.438056
Si 6.243465 22.117548 1.663194
Si 6.564642 1.350985 20.564768
Si 28.491739 8.550668 10.132164
Si 8.439402 21.077459 5.496157
Si 29.506880 14.338282 30.665293
Si 9.428306 16.576780 18.730665
Si 29.083307 7.345222 7.614895
Si 28.085474 18.682562 25.441247
Si 1.057320 10.172851 23.825408
Si 5.765561 6.967138 20.252503
Si 23.448506 27.576792 16.537797
Si 25.393946 11.001414 12.045336
Si 17.519687 29.941825 3.325337
Si 29.837002 24.265845 5.262540
Si 20.725711 27.877933 15.161568
Si 23.132086 24.990663 26.075924
Si 3.793604 3.596104 30.481374
Si 18.011630 9.703456 4.411086
Si 1.291719 2.167052 9.447567
Si 16.844951 18.789790 30.098960
Si 10.442127 14.881497 20.725043
Si 28.655658 28.243995 17.648121
Si 30.273741 20.181055 12.209689
Si 16.976164 30.508658 21.241787
Si 5.721741 12.704879 13.600474
Si 23.719273 6.989607 13.125850
Si 1.157574 13.740043 2.926208
Si 20.274951 13.765397 3.661733
Si 2.097234 7.920136 6.906409
Si 9.866783 15.779138 0.569602
Si 4.882929 10.894707 27.579627
Si 0.975628 22.521342 7.730455
Si 11.404472 14.453662 28.621014
Si 1.734047 19.572551 3.530935
Si 4.690272 15.680573 22.508304
Si 24.640227 21.346002 19.956954
Si 20.539214 18.786483 28.234692
Si 19.077015 5.447631 12.413229
Si 8.018516 10.783250 12.965996
Si 12.264278 2.494888 24.593278
Si 1.459316 4.329635 28.873051
Si 24.641370 18.721518 21.672194
Si 19.211187 27.907896 1.998193
Si 13.684543 0.844036 10.025512
Si 3.139102 3.966878 12.440975
Si 4.057919 14.374135 2.484619
Si 14.676837 2.648858 4.397830
Si 29.721741 10.745134 19.351469
Si 0.635380 25.654901 21.835372
Si 4.596951 19.753640 7.700015
Si 20.891221 24.259616 3.270317
Si 26.515333 14.614404 21.011118
Si 12.039000 23.752851 17.393021
Si 2.011962 26.060364 5.719072
Si 27.747856 15.455795 16.935644
Si 11.303188 7.858272 21.875640
Si 11.624140 11.647990 24.826839
Si 25.652296 6.400302 22.823275
Si 22.036601 30.561644 0.684721
Si 7.106176 28.341517 23.596924
Si 8.272818 4.452939 11.579114
Si 20.980152 22.801027 12.082114
Si 13.979394 18.123950 7.894143
Si 21.570809 10.544342 17.159821
Si 8.130464 25.406673 19.737908
Si 17.950271 2.443136 23.012180
Si 10.977864 16.288968 5.593314
Si 13.268435 20.577784 6.000601
Si 28.800196 21.348436 16.621476
Si 12.914787 29.930201 16.145362
Si 16.188654 19.249769 16.310514
Si 22.169884 14.802805 7.295948
Si 17.208224 24.776231 11.255555
Si 2.671039 29.243078 24.595355
Si 19.408882 23.292769 9.168732
Si 15.674649 10.729027 26.780227
Si 17.230772 25.813840 1.086422
Si 5.007758 11.684468 2.217520
Si 16.596246 5.168959 23.457429
Si 2.186945 9.847933 16.300562
Si 15.695405 11.336528 29.613326
Si 17.717073 13.547811 29.282805
Si 19.238391 4.051926 5.613072
Si 8.893916 5.765406 8.902144
Si 11.544169 29.046720 27.040250
Si 30.356918 4.529399 16.832812
Si 21.624924 27.744248 12.226321
Si 28.188093 3.862551 12.119193
Si 16.048456 28.389622 19.541290
Si 23.838335 29.862757 11.572430
Si 4.559835 23.862887 29.688386
Si 0.533947 23.400095 23.836742
Si 11.433133 12.360106 19.002844
Si 9.958884 27.770358 24.789672
Si 20.473574 1.862153 24.213133
Si 16.515107 1.429181 10.404052
Si 28.303338 10.938781 5.704511
Si 25.668053 1.415850 25.719332
Si 22.137315 17.159320 15.289240
Si 22.447174 1.495573 15.495078
Si 28.458557 18.727703 10.593935
Si 12.289630 13.384486 5.872061
Si 10.852724 13.188365 15.751512
Si 29.412739 3.132785 25.094930
Si 5.409874 24.628918 12.652027
Si 6.811968 22.362695 17.142785
Si 12.294910 29.462993 6.248788
Si 5.918558 7.388828 5.561485
Si 22.795115 15.668547 3.520483
Si 27.048700 8.579411 27.668380
Si 23.885335 4.654947 3.300905
Si 20.695546 8.073192 3.400618
Ca 8.700297 6.746769 19.233835
Ca 20.036274 9.266884 0.819006
Ca 7.673733 21.589893 19.933614
Ca 29.874281 6.656778 27.030629
Ca 21.454061 27.446915 28.350839
Ca 22.972556 17.396532 18.689005
Ca 29.655315 1.346295 0.738110
Ca 21.892871 17.577720 6.273416
Ca 28.060922 26.287949 20.613873
Ca 25.915255 22.254564 14.810421
Ca 11.355174 6.671220 10.810945
Ca 12.241700 22.814569 1.159464
Ca 1.124874 19.225417 9.320006
Ca 22.733310 28.791653 19.539770
Ca 5.867850 25.121080 17.023443
Ca 29.108752 16.476868 27.284069
Ca 8.078113 18.819353 1.788436
Ca 7.816287 0.946868 11.323973
Ca 29.823073 2.024128 20.975141
Ca 15.723164 21.650679 28.301434
Ca 12.217903 6.047130 1.065858
Ca 25.818850 28.383609 19.220507
Ca 5.547437 14.984391 7.009438
Ca 1.910466 29.473228 6.446240
Ca 15.491871 13.395911 19.498398
Ca 12.207381 29.412599 30.363122
Ca 2.972770 12.595124 18.944143
Ca 22.193334 2.007483 9.337794
Ca 8.307227 14.215575 13.175029
Ca 15.375833 0.904524 0.980252
Ca 22.463990 13.350166 19.335168
Ca 13.949144 1.350501 28.470328
Ca 14.969660 4.521533 1.138102
Ca 23.755058 8.280554 28.434217
Ca 10.821414 24.204714 20.526005
Ca 13.531599 24.319860 7.402936
Ca 2.536506 28.889581 2.982074
Ca 24.256663 0.720650 3.441289
Ca 26.122313 5.147658 6.100175
Ca 12.534750 24.351979 3.707998
Ca 25.562304 20.175239 8.576032
Ca 16.865924 9.352942 18.802461
Ca 4.325331 26.805976 27.102917
Ca 18.369596 0.582654 12.663552
Ca 23.488212 22.669861 9.532114
Ca 9.088732 24.738192 15.868621
Ca 29.366822 15.818659 23.800025
Ca 10.466466 16.776715 14.946676
Ca 26.177915 28.869944 8.735472
Ca 20.072621 15.913268 9.254687
Ca 30.330152 10.723723 8.644578
Ca 23.475288 4.095529 24.179590
Ca 22.088756 26.435646 22.331161
Ca 9.091560 24.077497 9.186951
Ca 21.710406 13.029431 22.801829
Ca 18.635963 8.409177 8.922981
Ca 28.615001 30.480572 27.200892
Ca 9.367006 24.016715 25.363481
Ca 1.770679 28.669417 16.959295
Ca 20.749762 3.876440 26.525454
Ca 18.320308 23.412852 3.512371
Ca 9.567292 12.872096 10.287796
Ca 9.234950 16.306570 8.588811
Ca 17.536481 0.616826 26.575350
Ca 0.623574 14.362784 12.430873
Ca 7.660835 23.885536 4.701416
Ca 26.729589 2.874728 3.750783
Ca 26.759051 4.397269 25.740884
Ca 11.991505 2.506208 18.793744
Ca 10.909152 3.188152 10.056325
Ca 10.853800 9.445042 2.191244
Ca 22.906051 12.043894 5.105580
Ca 18.415193 14.779656 6.731366
Ca 10.690553 17.902903 27.364139
Ca 23.070301 17.310241 27.388992
Ca 15.839812 23.813683 25.583850
Ca 7.858726 9.238452 3.549104
Ca 2.632162 1.173686 15.139512
Ca 9.563795 20.711180 9.835533
Ca 20.922429 0.552852 27.723504
Ca 20.097649 28.135206 20.915257
Ca 12.522570 18.216127 11.052839
Ca 15.409837 26.507173 5.996809
Ca 1.505031 15.786751 17.235495
Ca 3.560909 18.120366 11.997534
Ca 6.934150 7.702718 16.455868
Ca 30.187751 24.156081 18.191302
Ca 3.470105 7.911197 22.212174
Ca 28.414775 20.642534 7.490031
Ca 4.824551 9.321954 14.018956
Ca 21.389323 8.238554 14.882875
Ca 16.282654 16.157989 13.441808
Ca 26.697420 3.012391 22.741902
Ca 11.467707 8.454684 17.643851
Ca 10.596352 26.274119 6.305229
Ca 2.722174 16.618269 7.744312
Ca 28.535688 22.211229 29.564193
Ca 27.399928 19.144103 14.246972
Ca 12.507319 5.603396 4.454781
Ca 20.828737 20.929915 4.646920
Ca 14.962044 16.303198 23.490896
Ca 12.850837 19.910985 20.884456
Ca 21.759310 21.067438 20.284071
Ca 9.395109 1.036699 24.082712
Ca 13.351516 9.102844 23.955986
Ca 8.219975 9.995674 6.933136
Ca 28.191869 6.594711 3.897463
Ca 27.702058 7.914114 17.536323
Ca 1.837300 10.816220 4.753046
Ca 18.907140 21.208338 30.546412
Ca 29.138658 22.362566 10.653818
Ca 1.559960 17.739254 24.876545
Ca 11.539259 19.021483 30.611951
Ca 20.549999 20.947207 23.143100
Ca 1.397358 10.787792 12.674171
Ca 8.696318 22.831292 13.172736
Ca 4.413495 18.195487 1.444414
Ca 6.929257 5.572311 0.821294
Ca 4.797593 1.805550 3.849331
Ca 24.315350 24.819423 28.938490
Ca 26.040823 1.850959 29.670949
Ca 27.700624 15.890047 13.141048
Ca 29.555403 10.411860 2.366968
Ca 18.531741 7.748480 16.779686
Ca 10.548567 27.088697 21.930866
Ca 18.211936 21.387842 27.204583
Ca 9.876129 1.625249 17.038764
Ca 5.500226 22.401076 14.494749
Ca 2.933604 30.617852 20.589176
Ca 20.314235 20.531698 7.858646
Ca 10.898896 10.257230 11.906340
Ca 19.285858 3.984074 18.391393
Ca 16.908687 5.427872 8.523781
Ca 16.345087 11.221683 15.943934
Ca 3.832968 23.427661 22.601403
Ca 13.573722 3.088724 7.114160
Ca 23.042114 11.493508 29.265265
Ca 6.004327 5.702837 27.783321
Ca 6.967228 29.696804 26.613141
Ca 12.259492 23.013780 27.239975
Ca 18.525782 16.181559 23.279055
Ca 8.702862 17.611883 11.160653
Ca 21.283097 0.664219 6.412448
Ca 25.995125 21.805008 4.442054
Ca 3.499779 18.650394 15.046824
Ca 29.087024 23.388266 13.644448
Ca 12.521803 29.924718 22.838745
Ca 8.001199 28.055711 17.338101
Ca 2.390375 26.243606 19.074406
Ca 13.680717 17.480303 14.063431
Ca 13.237072 13.285876 22.005033
Ca 10.801193 0.772079 8.331526
Ca 29.645884 17.953890 17.863042
Ca 14.835875 23.422149 15.163673
Ca 8.819310 29.306072 5.266168
Ca 17.545542 2.738228 16.112392
Ca 22.039407 21.396639 29.099232
Ca 2.705969 3.533611 6.820997
Ca 21.338281 18.765159 25.164797
Ca 13.771465 26.165145 15.932280
Ca 23.369237 4.687697 7.775188
Ca 14.321245 2.706075 15.697472
Ca 3.757483 10.251769 8.444649
Ca 30.117125 14.540748 19.689696
Ca 24.857003 25.968870 9.684251
Ca 13.665785 6.731276 8.044251
Ca 9.365012 23.138345 1.506115
Ca 30.278078 6.154234 22.650400
Ca 13.024573 13.633901 13.718277
Ca 21.186034 27.541833 24.978132
Ca 8.715158 7.754975 29.888211
Ca 8.892847 20.402623 15.489967
Ca 6.403198 13.179951 19.292861
Ca 8.476611 3.411851 14.570310
Ca 6.452811 25.193899 1.101230
Ca 3.897644 30.379136 9.515217
Ca 4.863479 13.995662 16.923092
Ca 24.789059 15.725669 5.806458
Ca 5.522744 2.273819 28.304941
Ca 29.413300 26.600013 8.516576
Ca 28.041543 8.140632 0.762749
Ca 11.949490 15.648779 8.903903
Ca 16.284358 20.518369 24.136369
Ca 9.554618 4.752798 21.018481
Ca 21.336310 6.586789 29.913064
Ca 22.233433 11.609983 26.330795
Ca 14.580088 2.689034 21.291279
Ca 23.792320 18.705725 4.964884
Ca 16.239651 20.808116 8.561202
Ca 12.906770 18.908944 23.663463
Ca 2.009483 22.154081 0.452378
Ca 17.980419 27.650337 10.642725
Ca 12.968689 15.647711 17.454351
Ca 11.347352 26.921747 18.727022
Ca 9.084510 0.741738 28.841056
Ca 19.795932 15.777179 12.730795
Ca 23.934285 22.306654 1.220532
Ca 17.906310 6.659834 28.828957
Ca 21.801200 6.653100 17.977562
Ca 19.691638 4.785334 1.639597
Ca 27.002469 29.648301 5.617796
Ca 10.372476 20.653457 25.273189
Ca 20.244126 5.538552 23.149820
Ca 29.404321 29.028481 4.147026
Ca 25.038778 28.060635 0.926903
Ca 11.402602 2.132205 4.658665
Ca 22.484153 20.678711 14.576523
Ca 30.513477 5.528508 10.860831
Ca 7.497537 17.621404 14.412374
Ca 30.425310 19.639626 27.979856
Ca 27.670090 27.873724 30.014680
Ca 5.127879 10.739191 5.684598
Ca 20.519171 19.334750 17.771724
Ca 5.724173 28.838978 2.043529
Ca 28.389922 25.999334 23.979736
Ca 12.903964 20.932350 14.818037
Ca 5.556206 20.241538 4.088720
Ca 5.973664 1.235744 16.602591
Ca 26.652324 24.686340 17.877549
Ca 7.519434 7.261996 13.378774
Ca 25.999101 10.171035 3.356336
Ca 7.232222 11.512803 16.508235
Ca 16.556055 13.010959 23.347901
Ca 13.057054 10.192241 4.471875
Ca 3.255252 27.371263 10.874290
Ca 25.314981 26.989447 3.666927
Ca 24.385020 17.151694 1.189572
Ca 24.090751 21.006233 25.175599
Ca 19.952665 29.890215 9.626769
Ca 26.394175 4.295823 9.750622
Ca 26.698345 5.697017 28.985269
Ca 7.478934 23.204053 22.570015
Ca 10.396739 20.968525 18.565556
Ca 26.871390 1.177777 9.812704
Ca 21.374191 15.807343 30.422649
Ca 11.302195 1.727184 13.002352
Ca 12.868874 5.461334 23.371123
Ca 2.993433 21.813964 12.658823
Ca 16.805968 8.556721 24.421777
Ca 21.966531 2.744575 20.337674
Ca 18.028069 11.958952 8.708975
Ca 26.724979 18.602191 28.832765
Ca 30.448943 28.932830 20.654383
Ca 28.570441 12.111153 11.426447
Ca 6.108411 10.404444 20.688832
Ca 3.933422 8.458452 2.872955
Ca 13.078234 10.469282 14.961142
Ca 25.035283 26.694314 24.245201
Ca 4.728474 3.255879 9.977044
Ca 14.022945 29.442663 12.758554
Ca 17.750178 14.809419 2.265652
Ca 26.712552 24.920839 26.692309
P 4.831683 8.269570 29.612524
P 26.288951 24.874841 1.713527
P 9.402897 12.835299 26.413112
P 25.125475 20.604954 12.335053
P 8.439995 27.355830 3.367948
P 7.681418 1.065979 8.231760
P 18.310201 28.503598 6.955826
P 16.315063 3.332796 28.703874
P 13.444614 21.888686 10.129759
P 24.966436 7.332857 2.295576
P 8.616980 7.423700 26.309895
P 7.659091 12.900957 5.084551
P 17.871636 28.626125 23.549019
P 12.426003 4.404203 26.831598
P 11.733673 5.008349 14.263557
P 4.725798 10.234783 17.702176
P 27.936758 4.443948 1.288963
P 29.660669 30.058386 8.307140
P 23.604361 4.673671 28.156472
P 21.011118 14.993611 25.440345
P 5.187982 16.628190 4.552970
P 24.983372 1.824693 6.894584
P 7.153221 28.081247 29.078225
P 25.744492 10.249314 7.355665
P 24.894283 25.842902 20.980553
P 10.197225 4.965269 16.706253
P 18.913221 25.862530 26.631658
P 25.355557 21.904834 28.135395
P 5.078832 29.308594 5.291083
P 27.615374 13.218633 25.830275
P 8.912228 30.010471 14.541649
P 16.478993 8.762953 0.608302
P 9.296714 30.309185 19.818721
P 1.678112 21.594359 15.899539
P 24.535820 20.256011 17.223357
P 1.393596 1.603894 4.440300
P 29.794111 24.823632 27.184858
P 2.508439 3.562923 21.927568
P 11.279005 15.771066 23.775702
P 9.280091 6.159750 3.222579
P 23.056271 21.337813 6.552746
P 7.494487 1.911289 1.169969
P 11.040999 28.569304 10.974958
P 9.723981 21.397656 28.684603
P 21.895300 19.696119 1.829744
P 16.184599 11.565494 3.317361
P 19.672168 5.221162 15.331530
P 23.178130 6.066331 21.225474
P 5.036515 28.465660 18.234143
P 17.920641 6.207141 25.651193
P 9.433270 9.573769 15.395536
P 14.934385 6.540600 17.085263
P 20.577495 6.863357 6.187148
P 3.245181 6.212392 25.693887
P 18.407461 15.999443 18.277017
P 13.390671 12.428982 9.989991
O 23.756295 13.161123 9.584224
O 11.358474 15.188626 22.373217
O 10.240495 21.046293 13.644139
O 18.897261 28.185139 8.545096
O 17.150902 27.987466 28.818334
O 5.239872 27.579956 5.221687
O 27.006779 11.456683 22.581059
O 19.922200 1.693374 8.214433
O 2.460256 5.244843 8.353138
O 7.429663 22.006937 9.071086
O 17.952909 9.482993 12.349984
O 20.661281 3.303853 5.251240
O 12.427349 7.817187 25.972076
O 14.587046 28.122553 24.524896
O 9.462790 13.438601 15.835202
O 18.877477 1.245190 14.865739
O 27.442773 28.732404 12.048310
O 24.189766 0.399346 25.964949
O 3.751514 16.803262 10.092179
O 12.061470 10.641448 30.236653
O 15.450430 25.091774 16.890903
O 5.755059 28.274877 14.326792
O 19.659398 8.251237 28.973681
O 21.857419 13.732327 15.952953
O 10.464709 23.519071 17.737978
O 4.634273 19.943145 13.038650
O 30.144857 19.006652 7.180783
O 25.058933 2.297810 20.703864
O 5.345066 24.205116 28.391626
O 14.817236 18.526229 24.834956
O 9.628181 27.399586 16.392070
O 7.371009 9.674987 9.389068
O 27.716589 12.507820 5.458928
O 10.110260 16.920539 23.588346
O 30.093664 17.997645 0.834547
O 0.567820 27.916250 2.507335
O 21.017653 19.266245 22.529937
O 6.511639 2.165448 21.898279
O 17.422885 2.807852 9.273098
O 9.842598 0.990676 14.616709
O 11.275768 10.106005 25.149645
O 23.234435 16.002680 7.712728
O 11.028743 24.844942 22.711169
O 26.409608 1.348961 18.599786
O 13.021261 11.665095 19.410292
O 5.588805 6.899053 7.198010
O 27.863478 2.662667 11.100047
O 0.862438 4.792390 4.904608
O 14.503768 27.631909 3.302158
O 4.022798 26.929237 2.430113
O 7.836291 5.157457 12.592345
O 5.980979 4.573704 23.236955
O 17.677824 30.541301 10.338203
O 19.752544 5.584718 5.631668
O 20.441405 1.340513 11.795605
O 16.798252 12.321223 29.262479
O 8.239376 19.902458 6.601811
O 28.134721 14.952326 15.705269
O 27.199589 27.043056 9.788062
O 14.274781 7.801334 13.266635
O 24.290282 25.276318 26.415762
O 26.891233 26.162081 12.204074
O 25.934206 7.827928 3.023338
O 7.512599 25.039993 24.123242
O 18.575635 19.901356 24.824935
O 11.014342 14.731754 24.755287
O 20.017604 22.959364 13.337687
O 2.754289 6.673499 14.364374
O 29.527042 15.767558 30.124815
O 25.629957 16.379295 8.567162
O 28.122929 30.067700 8.788560
O 2.053701 6.471032 18.841801
O 28.652982 12.904264 26.832608
O 16.974394 3.791023 18.308052
O 2.428798 3.866910 27.474505
O 20.308924 28.115238 11.451673
O 24.518856 24.198867 6.147722
O 19.681689 14.686758 26.166290
O 17.187964 8.791413 5.115401
O 25.973279 7.969141 27.424267
O 6.491301 25.338592 8.774947
O 24.277734 21.593599 13.177144
O 11.607830 9.419521 27.712567
O 6.084411 16.559006 22.817992
O 8.897470 1.491856 1.508271
O 25.934697 21.122756 2.167944
O 13.029461 30.530985 14.703741
O 25.794098 24.713899 3.116974
O 13.457384 17.190784 9.257463
O 21.895801 22.248351 6.459077
O 7.756999 25.890002 3.406981
O 14.801626 24.065202 5.572796
O 5.174413 23.221723 9.880408
O 19.736822 29.355541 6.291171
O 8.996897 8.482778 11.438798
O 26.915092 23.985450 10.861474
O 17.180766 28.249624 6.443684
O 8.793656 13.114512 6.030164
O 22.233820 22.577652 22.349066
O 23.143190 19.437194 17.363734
O 21.794385 25.784076 26.555719
O 12.313908 3.030199 23.293876
O 17.663792 14.082922 27.576493
O 0.728026 17.526419 19.818608
O 22.685956 28.460130 4.200156
O 7.976504 26.738573 28.450053
O 18.809031 10.869834 5.335425
O 14.833771 17.271058 6.807939
O 12.827601 10.401237 17.278774
O 5.920741 21.063530 16.618870
O 8.574439 16.529079 29.429034
O 27.346802 22.113264 9.085216
O 14.121254 22.177801 20.939766
O 4.530756 10.405792 26.215860
O 16.170870 26.777351 1.447425
O 13.238429 17.570930 2.624704
O 25.917460 1.389026 1.946723
O 11.500629 24.620522 9.806114
O 6.624639 7.064606 23.586499
O 2.529694 4.382648 20.658768
O 10.499130 17.456905 17.943951
O 12.171705 8.339369 20.596736
O 30.028810 23.170213 6.441129
O 15.648314 25.366344 8.196358
O 7.250261 8.421985 5.579695
O 13.135300 1.329458 30.161719
O 27.851876 13.833417 0.784878
O 10.947700 13.504542 20.085849
O 7.443128 19.038763 28.606539
O 2.538453 9.360973 6.548788
O 11.334824 30.118401 28.169253
O 28.845611 27.786082 16.047884
O 8.606307 9.852439 1.451720
O 7.063443 26.196755 20.608762
O 29.638261 5.822080 8.457893
O 26.046551 28.973631 2.228221
O 24.617293 6.219798 21.634445
O 12.044912 28.723800 15.969479
O 14.412574 21.555978 5.754628
O 27.746820 13.326643 21.038247
O 20.982858 25.874569 29.807038
O 8.714083 25.551269 10.703674
O 18.742790 18.102327 3.455665
O 13.609766 8.594682 29.421518
O 9.954937 2.522028 22.283326
O 5.088410 20.785438 8.787573
O 12.949761 26.118187 4.718001
O 14.224274 10.581521 6.363273
O 3.806417 19.918180 25.499401
O 7.509847 11.766130 29.633006
O 25.743953 23.896960 0.726351
O 1.181655 14.098005 24.458455
O 6.899310 30.187668 8.652761
O 6.773959 10.823540 27.292747
O 19.280134 8.421985 14.402453
O 8.494538 8.368542 15.545190
O 26.809859 3.763991 19.399488
O 16.666129 21.558436 26.009763
O 26.309294 13.532601 26.409307
O 5.427020 7.206798 14.491743
O 18.033280 15.490068 11.321496
O 30.179130 24.618997 22.918878
O 5.721655 0.890795 11.339283
O 1.606479 9.578235 10.154412
O 17.415894 22.735455 21.391152
O 22.834736 6.564495 19.735012
O 4.235444 6.522666 26.496215
O 18.702004 15.524340 16.854672
O 4.244123 16.667173 26.405699
O 2.058479 17.194697 13.803230
O 3.723775 9.928491 12.218705
O 21.470796 14.812024 3.687678
O 1.649080 25.972076 7.359173
O 1.432278 28.286402 28.323280
O 16.522003 11.824467 12.025228
O 2.240395 7.122728 10.308157
O 19.182125 17.356540 24.869831
O 25.717265 29.585862 20.990088
O 12.332347 5.163069 6.988063
O 11.054862 9.049158 14.962078
O 18.955161 5.376850 26.260651
O 4.446739 30.587379 13.378187
O 17.161024 21.071747 11.699199
O 27.473721 1.111831 21.475794
O 13.852501 6.243982 2.497133
O 21.692769 27.161107 8.557994
O 15.508306 25.688272 24.340604
O 20.276829 22.874218 10.874058
O 16.853357 27.571546 23.462777
O 21.026543 10.612224 6.429777
O 18.959574 14.214369 4.301080
O 9.126584 20.587917 4.145172
O 22.581160 23.643019 16.791838
O 19.081864 25.632609 20.227008
O 25.891906 1.949860 27.273145
O 7.161782 13.834344 16.874815
O 7.713866 17.183945 6.426843
O 22.309882 8.616829 10.678226
O 29.871375 16.534991 13.127539
O 12.247524 16.143615 12.578565
O 7.761629 25.606398 18.224187
O 2.464625 28.180877 21.418886
O 23.314420 8.473464 25.347247
O 11.190116 19.455207 3.082781
O 4.516911 11.820234 20.757085
O 19.276626 11.792598 12.024692
O 23.829096 30.586457 15.401902
O 17.990289 19.639298 8.102224
O 14.543453 15.635377 29.101437
O 26.176512 29.915970 15.045521
O 5.269946 24.743462 4.143338
O 25.524005 11.570461 8.579681
O 11.362182 12.953268 17.484613
O 16.729706 2.251261 11.885897