1960
Ternary SiO2-CaO-P2O5 NPT-MC 5000steps E=-20489.3eV Box=30.044A
Si 7.391832 17.100093 29.162585
Si 16.284354 3.566855 12.749075
Si 2.799561 20.703126 26.297922
Si 17.562038 25.663025 20.115087
Si 0.431084 21.351777 21.137907
Si 2.378048 13.290620 7.359918
Si 2.033529 5.825724 4.499531
Si 11.222539 23.775327 11.075524
Si 29.686467 27.217358 14.646444
Si 26.279832 13.523523 0.503869
Si 15.662157 8.882908 9.871615
Si 11.797486 18.496267 17.255813
Si 12.297914 18.468954 3.709734
Si 26.848628 19.836357 2.011046
Si 14.109052 24.723725 28.833644
Si 23.556706 29.276685 25.853170
Si 12.924023 11.912631 0.252604
Si 23.456206 28.300240 5.420262
Si 27.161987 0.961724 14.823414
Si 21.027034 12.258391 12.218203
Si 13.848835 10.179597 7.813714
Si 16.276342 27.179814 27.850496
Si 0.493418 4.226070 13.900662
Si 6.763754 27.053000 14.120658
Si 18.206770 13.965457 26.125970
Si 19.052923 13.951805 20.422283
Si 14.538496 7.348184 28.925370
Si 2.593498 24.325278 15.790787
Si 29.519488 15.701392 9.516474
Si 22.752128 17.323977 11.274715
Si 8.479301 14.576452 16.450297
Si 26.635454 8.309969 12.582440
Si 4.220642 6.192601 14.606796
Si 6.649342 14.279719 9.719329
Si 16.905559 23.711916 22.393019
Si 18.162199 19.684605 11.790698
Si 15.712350 16.526908 5.495855
Si 25.107056 18.095377 24.544712
Si 19.062323 6.493772 20.084320
Si 19.133227 22.964439 14.663479
Si 19.512612 0.477181 19.007910
Si 22.407331 28.007210 2.608291
Si 5.233454 24.653844 9.590320
Si 1.021639 13.051953 22.975981
Si 20.926712 23.169187 17.370097
Si 11.511519 2.655058 21.938386
Si 17.836807 29.402665 29.508617
Si 24.478557 17.789258 13.648793
Si 24.749663 29.483807 14.643031
Si 27.113544 28.845735 24.661126
Si 15.433670 13.444237 6.055972
Si 22.419591 12.812284 9.491626
Si 5.524352 3.119600 22.883420
Si 23.496919 4.371754 11.761929
Si 17.117774 14.936780 10.174604
Si 15.330458 26.266903 9.235067
Si 6.061539 19.451894 17.149922
Si 10.047117 4.326307 28.953311
Si 10.456601 19.475797 13.026767
Si 17.819049 11.031837 12.872545
Si 13.771529 15.808207 27.752011
Si 5.959993 19.969642 12.453017
Si 15.911073 17.888695 10.341211
Si 23.015967 23.209925 21.395360
Si 0.529776 25.658685 11.383074
Si 14.108098 7.958721 3.009433
Si 7.979883 11.002858 28.442578
Si 6.676502 18.157352 22.399844
Si 18.675656 19.906259 14.664281
Si 12.181544 26.081405 9.412237
Si 14.697198 20.323732 1.564272
Si 27.648281 11.819375 21.218631
Si 18.350612 14.623317 15.661227
Si 8.881427 17.502080 24.636711
Si 3.015908 15.153097 29.960286
Si 6.732722 8.572637 24.089988
Si 18.389738 25.927079 14.996868
Si 22.598961 28.689876 8.360250
Si 27.372997 17.649453 20.689807
Si 7.094272 3.392975 18.410052
Si 27.003066 18.654647 5.128318
Si 5.649110 5.677003 8.360441
Si 23.074326 24.951925 5.673274
Si 0.181423 27.311086 28.477106
Si 13.275026 19.840116 27.629872
Si 2.060480 29.510428 27.515187
Si 2.340847 13.914349 15.120175
Si 18.671350 18.293196 7.698327
Si 7.757726 12.862049 22.502397
Si 15.228006 27.012869 23.590856
Si 0.517628 10.060036 29.198571
Si 6.564466 10.959554 9.252323
Si 0.470132 26.800393 1.351430
Si 6.869900 5.902222 22.791661
Si 27.006344 23.865831 9.384852
Si 0.448423 16.956587 0.115721
Si 21.054340 24.583505 0.429647
Si 25.907621 24.281777 6.549659
Si 8.721385 8.795544 9.993519
Si 21.873691 2.101949 12.216423
Si 26.539075 23.194976 23.827303
Si 29.724379 19.848621 1.249411
Si 2.604496 23.814016 25.692798
Si 13.713388 8.495204 20.603180
Si 3.325732 18.480871 18.149185
Si 0.074209 0.220223 23.906318
Si 16.263137 28.215734 14.067197
Si 18.474898 18.640435 25.676349
Si 25.275224 13.700769 3.398448
Si 20.251064 9.317178 20.774932
Si 29.141865 9.165421 14.390766
Si 20.336890 5.271562 9.568376
Si 14.188472 22.440930 22.568276
Si 15.595382 12.920965 11.633745
Si 27.555063 14.067206 5.399609
Si 29.894991 12.640716 27.713295
Si 18.496895 24.033705 29.054860
Si 3.213566 25.683952 1.672342
Si 15.437357 4.034549 18.760155
Si 24.744126 13.680301 26.270253
Si 14.013327 26.307636 20.635127
Si 7.134603 21.447305 25.419325
Si 10.858205 22.441573 6.759742
Si 4.407546 11.066010 11.434750
Si 21.459334 2.972334 4.165321
Si 0.591328 1.474860 17.994058
Si 24.538342 15.201652 23.492508
Si 25.479122 12.569312 9.486316
Si 4.509606 4.078514 17.004308
Si 19.961828 10.011880 24.009643
Si 14.514061 28.927373 25.940498
Si 22.569468 16.335112 21.677138
Si 27.517608 22.646234 20.848733
Si 1.345301 8.235654 10.948638
Si 3.069256 21.428589 5.586884
Si 25.767859 2.594644 19.199446
Si 26.180149 10.462225 29.933547
Si 15.326951 7.872912 14.471498
Si 19.458934 0.474337 16.010556
Si 22.856439 9.532080 1.771846
Si 4.105734 12.660746 22.318092
Si 28.912497 8.617855 24.897150
Si 2.323273 3.568227 25.986866
Si 26.787038 15.143182 8.295642
Si 15.665046 15.979307 0.070904
Si 28.149935 4.590895 19.340430
Si 14.427488 28.865867 8.224015
Si 16.109978 7.472759 5.372962
Si 0.443995 8.358136 20.982217
Si 10.560770 8.247631 5.233656
Si 29.448136 4.010194 8.190938
Si 7.445787 25.891453 7.572193
Si 18.015489 21.238310 20.665772
Si 1.177871 7.005278 17.745033
Si 18.162905 8.087957 13.214857
Si 24.242110 17.093839 8.522193
Si 7.583912 18.633737 19.535436
Si 23.088665 3.723784 17.390554
Si 22.646162 9.667604 11.997800
Si 26.264072 24.641295 12.160713
Si 27.697164 0.865965 17.885135
Si 2.215035 25.123582 8.793534
Si 7.118728 4.536055 4.558838
Si 13.777063 10.837254 18.405120
Si 19.506874 1.808389 1.895497
Si 3.089145 6.358174 9.243520
Si 6.163794 3.052992 6.816644
Si 18.179359 10.785057 26.379855
Si 18.148299 22.438134 6.715921
Si 11.601895 23.689801 23.408489
Si 1.110169 0.154936 12.003539
Si 1.718748 14.361838 25.959927
Si 6.063096 21.801591 9.681255
Si 4.682159 15.528847 13.910476
Si 24.735333 10.815543 17.325579
Si 29.298387 10.941399 16.595920
Si 26.861047 10.721705 24.069257
Si 1.765751 7.269697 29.330809
Si 15.153053 14.049933 16.254583
Si 17.947890 18.304913 4.792110
Si 25.065458 7.311719 8.141917
Si 2.061345 12.775136 10.235011
Si 16.685836 21.973395 17.817826
Si 8.136238 16.697659 5.033683
Si 15.640310 10.652204 21.852610
Si 20.746890 12.737258 15.205674
Si 11.135673 26.372333 1.366244
Si 20.586455 18.183035 21.324537
Si 4.044591 23.552361 3.537139
Si 28.696836 21.671845 25.325197
Si 3.978841 19.787520 28.911352
Si 25.384049 13.802360 18.274021
Si 8.078864 3.167590 26.556501
Si 23.360594 10.364260 21.337301
Si 29.210388 23.998353 2.228584
Si 3.164235 27.045348 22.210940
Si 25.552050 15.874218 28.254412
Si 4.249358 1.207433 25.400859
Si 10.999352 8.658696 8.240300
Si 4.832586 20.212917 23.983342
Si 15.256248 28.146429 1.994522
Si 19.998937 11.613483 5.726160
Si 16.024874 17.285520 18.797034
Si 9.022697 13.800515 2.530497
Si 18.436106 2.231949 7.981752
Si 7.022937 20.305444 28.236061
Si 24.281368 9.025691 24.141263
Si 16.816233 20.882089 3.510803
Si 21.664034 25.511269 8.452732
Si 12.050459 13.762782 2.981653
Si 5.996763 27.352149 21.044909
Si 28.710954 3.355919 28.082978
Si 11.510761 26.261468 28.661885
Si 12.975707 27.368290 3.819435
Si 9.051778 10.178725 22.427299
Si 0.488516 17.547204 14.103860
Si 9.827858 12.882419 7.066464
Si 12.042039 2.487444 0.741120
Si 23.599136 24.642837 16.197843
Si 20.487932 25.171752 19.459689
Si 13.782389 6.917783 26.082506
Si 12.114680 9.299635 29.499083
Si 7.452388 14.732423 25.125960
Si 21.808259 7.689951 25.318595
Si 26.406910 17.810006 17.995843
Si 11.504452 25.025858 13.858701
Si 4.483848 16.884807 27.853545
Si 7.645555 18.608807 7.394308
Si 9.992067 0.672010 2.074501
Si 26.957387 0.118198 2.240359
Si 9.082725 10.349961 19.158864
Si 6.145930 25.804811 24.695337
Si 27.785100 26.628105 5.841507
Si 10.206551 21.161598 22.060014
Si 14.193055 4.927624 10.815611
Si 23.337442 14.537250 16.054388
Si 13.928530 7.693790 11.683707
Si 10.269443 20.735173 2.991332
Si 10.783596 27.656512 15.462650
Si 0.435092 18.068358 21.442247
Si 3.883298 15.353190 10.747643
Si 14.061916 22.990001 19.744732
Si 0.659893 15.228591 5.420234
Si 16.856207 24.924980 17.214532
Si 3.236465 5.476108 19.580793
Si 25.151242 27.893659 28.090447
Si 2.277360 26.763109 13.830149
Si 0.966995 7.763502 2.295753
Si 10.966447 15.839031 11.654613
Si 25.816416 9.573954 19.744923
Si 24.389962 0.990955 20.888833
Si 0.028141 18.218387 5.812534
Si 2.431750 21.204148 18.788000
Si 4.380116 15.375823 25.393998
Si 4.299494 28.924494 14.365807
Si 22.323429 7.740870 9.269084
Si 15.843239 22.009662 12.099046
Si 28.197209 13.182954 14.896670
Si 22.987699 3.531312 0.506737
Si 11.290662 9.012410 26.267096
Si 6.262343 24.214770 27.061941
Si 4.911975 23.291017 19.591097
Si 5.167989 26.136227 5.129404
Si 3.573909 15.787075 19.662215
Si 15.402161 18.198257 26.267477
Si 16.357572 0.792346 6.248172
Si 4.528844 4.829775 3.122053
Si 15.818348 6.489582 20.651589
Si 27.699355 7.358157 20.671974
Si 5.162051 1.490724 12.627297
Si 14.945730 1.108585 24.486752
Si 8.586159 25.199878 28.762151
Si 15.799474 29.735957 16.776923
Si 3.120431 12.028219 29.783027
Si 13.615252 16.421174 20.340719
Si 21.362170 22.485310 26.030528
Si 3.195200 0.467230 0.144712
Si 7.837208 11.426685 1.082960
Si 19.113698 11.257390 18.616971
Si 19.214546 17.997263 1.937328
Si 19.425558 24.409299 24.225241
Si 13.971836 16.301176 2.750300
Si 14.202204 13.301084 25.573461
Si 29.739763 3.716885 5.182632
Si 18.932860 25.440130 5.378929
Si 20.579499 9.324565 27.853772
Si 23.245248 24.812955 12.851732
Si 16.897552 4.865727 3.685659
Si 1.424575 7.205687 13.844793
Si 15.603338 22.532350 5.235566
Si 28.671497 29.449895 13.091767
Si 25.247121 12.119433 14.738525
Si 19.426720 3.367367 29.235742
Si 15.132466 23.648140 1.350198
Si 17.518963 18.563354 21.558335
Si 21.261645 10.293378 8.055069
Si 10.850394 4.545969 6.830065
Si 21.236708 20.087525 10.912485
Si 25.977465 3.639138 14.090235
Si 24.810243 5.912681 15.929734
Si 20.304342 12.904302 0.508545
Si 6.669950 28.450675 9.099589
Si 27.127036 29.834803 21.526432
Si 8.248743 27.050224 11.384977
Si 27.717902 27.142158 11.286933
Si 4.206572 10.407573 24.495420
Si 22.634735 29.806937 22.967180
Si 9.294154 5.049246 24.429184
Si 6.126544 22.088355 1.735863
Si 6.560280 1.350088 20.551104
Si 28.472808 8.544987 10.125432
Si 8.433794 21.063454 5.492506
Si 29.416290 14.219128 0.421117
Si 9.542273 16.580976 18.706588
Si 29.119687 6.974259 7.709858
Si 28.217649 18.742131 25.555810
Si 1.076960 10.093971 23.834124
Si 5.854311 6.977979 20.147911
Si 23.432925 27.558468 16.526809
Si 25.385529 10.902879 12.021819
Si 17.508046 29.921930 3.323128
Si 29.817177 24.249722 5.259044
Si 20.795312 27.717468 15.186868
Si 22.980763 24.980192 25.754726
Si 3.685414 3.814322 0.391339
Si 18.119442 9.718876 4.439773
Si 1.321244 2.377719 9.211757
Si 16.833758 18.777305 0.034951
Si 10.425614 14.736739 20.839212
Si 28.489338 28.093150 17.774437
Si 0.401331 20.129610 12.411546
Si 17.128912 0.562039 21.082884
Si 5.815096 12.662199 13.921046
Si 23.809076 7.034024 13.198033
Si 1.156805 13.730913 2.924264
Si 20.322947 13.689169 3.765068
Si 2.095840 7.914874 6.901820
Si 9.540866 16.012455 0.477904
Si 4.935780 10.690359 27.614851
Si 0.927066 22.530094 7.548850
Si 11.396894 14.444058 28.601997
Si 1.674197 19.361397 3.676869
Si 4.687156 15.670154 22.493349
Si 24.938557 21.453695 19.901448
Si 20.249299 18.704927 28.133733
Si 18.974394 5.302708 12.296412
Si 8.013188 10.776085 12.957380
Si 12.406150 2.384592 24.857493
Si 1.458346 4.326758 28.853866
Si 24.659560 18.703439 21.703845
Si 19.198422 27.889353 1.996865
Si 13.712261 1.144254 10.091805
Si 3.152167 3.996404 12.602761
Si 4.225516 14.556514 2.463458
Si 14.784008 2.649546 4.413437
Si 29.917524 10.911684 19.508276
Si 0.565925 25.521218 21.897245
Si 4.606888 19.745624 7.652269
Si 20.856446 24.166864 3.425175
Si 26.425259 14.644675 20.852339
Si 11.992869 23.649232 17.260770
Si 1.877639 25.895101 5.703537
Si 27.854572 15.570576 16.941218
Si 11.090846 8.020108 21.770089
Si 11.616416 11.640251 24.810343
Si 25.635251 6.396049 22.808110
Si 22.124006 0.376613 0.783652
Si 7.545813 28.613414 23.873770
Si 8.386753 4.347473 11.569305
Si 20.966212 22.785877 12.074086
Si 14.096401 18.220996 8.027853
Si 21.556476 10.537335 17.148419
Si 8.026304 25.498186 19.866678
Si 17.657966 2.496327 23.010306
Si 11.042089 16.223889 5.623755
Si 13.295676 20.439841 6.074538
Si 28.861653 21.532596 16.546504
Si 12.906205 29.910313 16.134634
Si 16.177898 19.236979 16.299676
Si 22.217389 14.937623 7.259035
Si 17.196790 24.759769 11.248076
Si 2.936746 29.085736 24.506169
Si 19.370374 23.599569 9.408311
Si 15.506583 10.675895 26.545179
Si 17.287142 25.818705 0.984564
Si 4.985397 11.765819 2.352794
Si 16.300577 5.074583 23.586750
Si 2.043965 9.995597 16.019414
Si 15.684976 11.328995 29.593649
Si 17.516759 13.736421 29.212291
Si 19.180095 4.129179 5.688933
Si 8.813539 5.820437 8.792620
Si 11.536499 29.027420 27.022283
Si 0.046368 4.319457 16.823644
Si 21.716406 27.845837 12.191486
Si 28.211405 3.916131 11.993824
Si 16.037792 28.370758 19.528305
Si 23.822496 29.842915 11.564740
Si 4.556805 23.847032 29.668659
Si 0.676460 23.187265 23.541785
Si 11.351054 12.437637 19.139342
Si 10.118922 27.684453 24.765076
Si 20.509841 1.829271 24.108725
Si 16.741423 1.658139 10.352364
Si 28.335368 11.038225 5.775788
Si 25.572459 1.396946 25.852970
Si 22.302973 17.042273 15.269181
Si 22.432259 1.494579 15.484782
Si 28.274317 18.553578 10.549253
Si 12.389749 13.429772 5.773147
Si 11.049486 13.246103 15.894483
Si 29.560401 2.979474 25.034171
Si 5.406279 24.612553 12.643621
Si 6.868541 22.285932 17.011823
Si 12.246339 29.259961 6.101708
Si 6.025566 7.393600 5.735622
Si 22.854490 15.586241 3.413187
Si 27.294682 8.673735 27.750850
Si 23.869464 4.651854 3.298712
Si 20.741837 8.062115 3.515055
Ca 8.685418 6.805876 19.242771
Ca 19.896934 9.267155 0.852282
Ca 7.707638 21.730755 19.930651
Ca 29.940898 6.917472 26.915235
Ca 21.439805 27.428678 28.332001
Ca 22.890722 17.354846 18.657127
Ca 29.627335 1.323918 0.859693
Ca 21.597756 17.815722 6.268973
Ca 27.996164 26.210835 20.658354
Ca 25.996844 22.264478 14.676393
Ca 11.222339 6.491479 11.026552
Ca 12.367889 22.845369 0.870810
Ca 1.155892 19.263392 9.460675
Ca 22.630574 28.472085 19.439403
Ca 5.854766 25.378976 16.844875
Ca 29.129952 16.685720 27.220637
Ca 8.147708 18.858718 1.676533
Ca 7.878645 1.215863 11.273570
Ca 29.467371 2.285463 21.154666
Ca 15.614032 21.540615 28.348048
Ca 12.214197 5.967243 1.020790
Ca 25.866335 28.186051 19.192654
Ca 5.418795 15.181677 6.923490
Ca 1.976773 29.379130 6.549709
Ca 15.444347 13.391773 19.480051
Ca 12.093961 29.460965 0.324570
Ca 2.877418 12.565768 18.887928
Ca 22.442086 2.094764 9.342009
Ca 8.206068 14.416263 13.242624
Ca 15.322270 1.202267 1.044412
Ca 22.564698 13.218322 19.559072
Ca 13.992825 1.376151 28.089291
Ca 15.155257 4.601800 1.272372
Ca 23.786756 8.267453 28.466358
Ca 10.713293 24.043219 20.340195
Ca 13.522608 24.303701 7.398017
Ca 2.632134 28.630083 2.883580
Ca 24.182117 0.831144 3.306474
Ca 26.319390 4.985190 6.312773
Ca 12.569612 23.881582 4.109440
Ca 25.545319 20.161833 8.570334
Ca 16.811502 9.389583 18.856021
Ca 4.113996 26.934855 27.012268
Ca 18.452203 0.480072 12.649054
Ca 23.226803 22.403765 9.842712
Ca 9.011067 24.702358 16.414916
Ca 29.455247 15.662943 23.637024
Ca 10.668928 16.752439 14.803384
Ca 26.160520 28.850761 8.729667
Ca 20.059283 15.902695 9.248537
Ca 0.155011 10.816786 8.685165
Ca 23.350963 3.970333 24.354713
Ca 22.124208 26.366222 22.253998
Ca 9.114452 23.822933 9.183691
Ca 21.695981 13.020773 22.786678
Ca 18.949737 8.159358 8.926945
Ca 28.402175 0.339950 27.269098
Ca 9.438408 24.096824 25.302216
Ca 1.745940 28.688351 17.128129
Ca 20.784522 3.946498 26.511244
Ca 17.923109 23.569243 3.514543
Ca 9.480561 12.949566 10.338313
Ca 9.319356 16.200721 8.615798
Ca 17.593721 0.776486 26.616856
Ca 0.673374 14.339542 12.704006
Ca 7.717539 23.741660 4.656613
Ca 26.711828 2.872818 3.748291
Ca 26.594758 4.536437 25.708085
Ca 12.068194 2.311427 19.054004
Ca 10.817174 2.949506 9.743996
Ca 10.851898 9.333420 2.170788
Ca 22.986972 11.815407 5.201850
Ca 18.402957 14.769835 6.726894
Ca 10.702430 17.750208 27.316882
Ca 23.054971 17.298740 27.370793
Ca 15.878106 23.735024 25.651338
Ca 7.929367 9.139131 3.458630
Ca 2.497078 1.369887 15.331458
Ca 9.557440 20.697418 9.828998
Ca 20.791501 0.773619 27.924017
Ca 19.744969 28.074139 21.192483
Ca 12.483286 18.279977 11.033262
Ca 15.344577 26.462863 5.785044
Ca 1.291812 16.001601 16.962302
Ca 3.558543 18.108325 11.989563
Ca 6.805599 7.511653 16.602520
Ca 29.801375 24.026647 18.453068
Ca 3.467800 7.905941 22.197415
Ca 28.395895 20.628818 7.485054
Ca 4.815844 9.516346 14.014089
Ca 21.251958 8.154592 14.739475
Ca 16.271835 16.147253 13.432877
Ca 26.771306 3.105113 22.952339
Ca 11.469307 8.410136 17.646186
Ca 10.880943 26.218488 6.248360
Ca 2.478534 16.638935 7.695941
Ca 28.615817 22.258605 29.529155
Ca 27.742523 18.811324 14.147033
Ca 12.571817 5.731778 4.303277
Ca 20.729064 20.948686 4.488895
Ca 14.952102 16.292365 23.475287
Ca 12.643860 19.726487 20.767656
Ca 21.762383 20.955986 20.316468
Ca 9.233215 1.124718 24.137657
Ca 13.243109 9.198598 24.021909
Ca 8.153871 9.933695 7.061928
Ca 28.100986 6.760381 4.080851
Ca 27.683652 7.908855 17.524671
Ca 1.953303 10.672919 4.642154
Ca 18.961930 21.239253 0.553402
Ca 29.093216 22.251995 10.770978
Ca 1.558924 17.727468 24.860015
Ca 11.531592 19.008845 0.547602
Ca 20.438539 21.079978 23.245050
Ca 1.595016 10.834771 12.860138
Ca 8.766251 22.927087 13.185300
Ca 4.307064 18.123376 1.356201
Ca 6.963545 5.769391 0.848429
Ca 4.840217 1.826827 3.652037
Ca 24.244528 24.866392 28.780388
Ca 26.023520 1.849730 29.651234
Ca 27.634179 16.004343 12.950170
Ca 29.379205 10.379503 2.116391
Ca 18.778613 7.970549 16.953848
Ca 10.526507 27.224472 21.790415
Ca 18.399841 20.996964 27.189144
Ca 9.869567 1.624169 17.027442
Ca 5.496571 22.386192 14.485118
Ca 2.963301 0.353217 20.621707
Ca 20.300737 20.518055 7.853424
Ca 10.942551 10.129490 11.891233
Ca 19.449690 3.867265 18.532146
Ca 16.951206 5.477457 8.617802
Ca 16.334227 11.214227 15.933339
Ca 3.496855 23.598049 22.340554
Ca 13.359993 2.938873 7.275632
Ca 23.134862 11.744500 29.297611
Ca 5.953602 5.763685 27.809327
Ca 6.967649 29.589922 26.484743
Ca 12.318393 23.116170 27.344710
Ca 18.846625 16.025896 23.002486
Ca 8.921704 17.367561 11.060918
Ca 21.152018 0.682299 6.329639
Ca 25.844308 21.817003 4.460149
Ca 3.497453 18.638001 15.036826
Ca 29.181546 23.505431 13.859502
Ca 12.348061 29.648322 22.675259
Ca 7.995883 28.037069 17.326580
Ca 2.426434 26.205787 19.132726
Ca 13.780404 17.432830 13.848922
Ca 13.228277 13.277049 21.990412
Ca 10.714194 0.761558 8.047268
Ca 29.481433 17.932633 17.892644
Ca 14.777115 23.414126 15.192286
Ca 8.813450 29.286600 5.262669
Ca 17.533884 2.736408 16.101686
Ca 22.099444 21.399647 29.229394
Ca 2.419369 3.741979 6.949069
Ca 21.578509 18.546167 25.046088
Ca 13.692205 26.243929 15.732598
Ca 23.465257 4.664542 7.844638
Ca 14.283436 2.589731 15.610714
Ca 3.550120 10.251617 8.482435
Ca 29.912510 14.732861 19.895996
Ca 24.840487 25.951614 9.677816
Ca 13.855269 6.918984 8.011228
Ca 9.413221 23.231985 1.495211
Ca 0.000601 5.828808 23.001994
Ca 13.154269 13.848385 13.622855
Ca 20.996857 27.489167 24.976686
Ca 8.709368 7.749822 29.868352
Ca 8.886938 20.389066 15.479675
Ca 6.398943 13.171193 19.280042
Ca 8.355681 3.386241 14.503739
Ca 6.563080 25.431667 1.253863
Ca 4.026364 0.164345 9.325279
Ca 4.845778 13.866111 16.831856
Ca 24.772587 15.715220 5.802600
Ca 5.390631 2.367080 28.357602
Ca 29.513203 26.695120 8.618957
Ca 28.188191 7.989653 0.743457
Ca 12.065073 15.568605 8.706093
Ca 16.273538 20.504736 24.120332
Ca 9.593334 4.582474 21.047208
Ca 21.248870 6.431297 29.982698
Ca 22.049876 11.598521 26.048635
Ca 14.573373 2.788744 21.530154
Ca 24.111160 18.845511 4.964195
Ca 16.155365 21.030406 8.515784
Ca 12.967737 18.966137 23.703193
Ca 1.951367 21.789362 0.631000
Ca 17.978936 27.850296 10.768574
Ca 13.059494 15.593981 17.537082
Ca 11.406129 26.954618 18.566815
Ca 9.246702 0.780204 28.773991
Ca 19.916192 15.286468 12.952903
Ca 23.924445 22.342328 1.061004
Ca 17.894412 6.655409 28.809801
Ca 21.903944 6.502854 18.063213
Ca 19.687241 4.936526 2.021982
Ca 26.984528 29.628601 5.614064
Ca 10.365584 20.639734 25.256396
Ca 20.226882 5.398851 22.855880
Ca 29.526535 29.278091 4.067736
Ca 24.333763 28.299144 0.645189
Ca 11.157988 2.254271 4.924963
Ca 22.464929 20.585582 14.694282
Ca 0.478801 5.417936 10.751950
Ca 7.385138 17.557401 14.482179
Ca 0.220423 19.737812 27.719304
Ca 27.756407 27.837942 29.750946
Ca 4.962339 10.869221 5.631549
Ca 20.474732 19.370051 17.636769
Ca 5.567767 28.820096 1.978885
Ca 28.405645 26.046835 23.914642
Ca 13.129893 21.081029 14.675294
Ca 5.460479 20.296230 4.101538
Ca 6.020930 1.216081 16.369679
Ca 26.481376 24.695235 17.804687
Ca 7.404319 7.202759 13.450825
Ca 26.061769 10.294073 3.521794
Ca 7.227417 11.505153 16.497266
Ca 16.468855 13.106003 23.064215
Ca 13.490990 10.080262 4.378997
Ca 3.524954 27.576393 10.815484
Ca 25.228317 27.140037 3.839239
Ca 24.427404 17.354196 0.991513
Ca 24.201011 20.959664 24.976046
Ca 19.691441 29.776287 9.731574
Ca 26.506085 4.375591 9.682430
Ca 26.681462 5.890719 29.112748
Ca 7.342295 23.218711 22.539817
Ca 10.188649 21.149720 18.385337
Ca 26.853536 1.176994 9.806184
Ca 21.359989 15.796840 0.358425
Ca 11.423238 1.760425 12.857794
Ca 12.915719 5.433429 23.398675
Ca 2.841602 21.613560 12.710418
Ca 16.794801 8.551036 24.405550
Ca 22.076894 2.905192 20.425718
Ca 18.119140 12.078025 8.599254
Ca 26.707221 18.589831 28.813607
Ca 0.546244 28.885627 20.387298
Ca 28.876701 12.009960 11.674753
Ca 6.007099 10.307668 20.641427
Ca 3.930808 8.452832 2.871046
Ca 13.069545 10.462325 14.951201
Ca 25.018648 26.676576 24.229091
Ca 4.770822 3.272959 9.942031
Ca 14.147735 29.589660 12.791581
Ca 17.738384 14.799579 2.264147
Ca 26.835316 24.933781 26.620790
P 4.828473 8.264075 29.592848
P 26.271483 24.858313 1.712388
P 9.438256 13.123031 26.442777
P 25.135146 20.682607 12.315282
P 8.511596 27.019198 3.191407
P 7.676314 1.065270 8.226290
P 18.632894 28.110477 6.890924
P 16.461828 3.514761 28.573279
P 13.435681 21.874142 10.123028
P 24.949847 7.327984 2.294050
P 8.501639 7.561514 26.433586
P 7.624507 13.007386 5.015404
P 17.859761 28.607104 23.533372
P 12.601533 4.430116 27.125240
P 11.725876 5.005021 14.254080
P 4.722658 10.227982 17.690413
P 27.842756 4.585847 1.238157
P 29.596654 30.030990 8.103951
P 23.805571 4.631454 28.027555
P 21.153818 15.102388 25.297133
P 5.184534 16.617141 4.549945
P 25.043168 1.861526 6.908039
P 7.200167 28.013948 29.138758
P 25.697600 10.119643 7.202835
P 24.877741 25.825730 20.966612
P 10.487545 5.112297 16.573814
P 18.741253 25.913058 26.788741
P 25.532329 21.660429 28.218514
P 5.096996 29.114247 5.307014
P 27.597025 13.209850 25.813112
P 9.015762 0.006589 14.503816
P 16.334127 8.604304 0.746431
P 9.406070 29.958638 19.839492
P 1.676996 21.580011 15.888975
P 24.519517 20.242552 17.211912
P 1.392670 1.602828 4.437350
P 29.774314 24.807138 27.166794
P 2.506772 3.560556 21.912999
P 11.525744 15.999711 23.968082
P 9.244935 6.014539 3.112223
P 23.040951 21.323635 6.548392
P 7.373711 1.973711 1.132829
P 11.000824 28.634813 10.995346
P 9.603883 21.526341 28.601561
P 21.880751 19.683032 1.828528
P 15.989708 11.642562 3.180067
P 19.659509 5.146639 15.208959
P 23.168318 5.993763 21.086747
P 4.877384 28.417126 18.309420
P 17.993473 6.211676 25.639546
P 9.457470 9.574962 15.162433
P 14.924462 6.536254 17.073910
P 20.563822 6.858797 6.183037
P 3.041146 6.506070 25.637632
P 18.617872 16.122917 18.189544
P 13.095884 12.390765 10.011896
O 23.953788 13.057227 9.706008
O 11.577139 15.068829 22.321377
O 10.212391 20.894736 13.698451
O 18.707049 27.980696 8.328589
O 17.170550 27.980205 28.848293
O 5.171924 27.481644 5.068646
O 26.869799 11.275203 22.379013
O 19.908963 1.692249 8.208975
O 2.234231 5.468439 8.318367
O 7.409691 21.884951 8.885411
O 17.996679 9.344532 12.347551
O 20.519268 3.310449 5.512785
O 12.327928 7.764012 25.844959
O 14.669992 28.015623 24.651853
O 9.347142 13.404936 15.900887
O 18.739578 1.388708 14.723483
O 27.541785 28.670213 11.717050
O 23.971725 0.556325 26.018602
O 3.836446 16.712434 10.160967
O 11.900749 10.646738 0.085672
O 15.533951 25.183777 16.666564
O 5.710483 28.152289 14.242210
O 19.859991 8.340838 28.839645
O 21.769149 13.788663 15.868248
O 10.732090 23.418026 17.720330
O 4.568126 20.032802 12.880266
O 0.080818 18.994023 7.176012
O 25.042282 2.296284 20.690107
O 5.341514 24.189033 28.372761
O 14.807390 18.513920 24.818455
O 10.103444 27.051067 16.848579
O 7.566043 9.767648 9.475470
O 27.589019 12.498948 5.476637
O 10.097892 16.745229 23.790148
O 0.170701 18.102578 1.104703
O 0.471401 28.098059 2.309273
O 20.945896 19.108452 22.520335
O 6.414843 2.308179 21.880798
O 17.565931 2.621931 9.299903
O 9.828401 1.159929 14.466135
O 11.294866 9.884470 25.179653
O 23.257295 15.969270 7.624150
O 10.838977 24.872534 22.685230
O 26.239913 1.371941 18.653894
O 12.799566 11.983731 19.296240
O 5.541343 6.665106 7.035579
O 27.436779 2.543752 11.511774
O 0.756280 4.826039 4.892612
O 14.494131 27.613549 3.299964
O 3.995726 26.998740 2.352621
O 7.954262 5.042326 12.760692
O 6.157366 4.580899 23.414496
O 17.686851 0.578852 10.344566
O 19.882197 5.709817 5.585931
O 20.427823 1.339622 11.787767
O 16.787090 12.313036 29.243036
O 8.233901 19.889234 6.597424
O 27.978718 14.799582 15.574356
O 27.181516 27.025087 9.781558
O 14.265714 7.682496 13.280794
O 24.587464 25.401341 26.515300
O 26.873365 26.144697 12.195965
O 26.061501 7.529072 3.198733
O 7.507607 25.023355 24.107213
O 18.563292 19.888133 24.808440
O 11.007023 14.721965 24.738838
O 20.004303 22.944109 13.328824
O 2.879699 6.907801 14.402218
O 29.532119 15.775397 0.166873
O 25.585378 16.181102 8.516365
O 28.245323 29.800856 8.635894
O 2.052336 6.466733 18.829282
O 28.668746 12.945664 26.721435
O 17.082032 3.800717 18.343684
O 2.330704 3.770473 27.632477
O 20.295429 28.096556 11.444064
O 24.308715 24.156330 5.978302
O 19.723350 14.587572 26.235891
O 17.144614 8.688107 5.184214
O 25.879570 7.816213 27.327436
O 6.426284 25.141298 8.728248
O 24.307172 21.595781 13.038051
O 11.587173 9.413629 27.918796
O 5.983973 16.437421 22.586431
O 8.704551 1.441712 1.549810
O 25.917464 21.108720 2.166504
O 13.553840 0.620607 14.785446
O 25.776959 24.697477 3.114903
O 13.195153 17.226500 8.629215
O 21.881252 22.233568 6.454785
O 7.751845 25.872799 3.404717
O 14.819249 23.873452 5.409309
O 5.169513 23.301231 9.978737
O 19.686585 29.078632 6.238465
O 8.991581 8.376646 11.395051
O 26.700311 24.060745 10.692262
O 17.071667 28.157664 6.383316
O 8.886195 13.192563 5.973244
O 21.988865 22.372912 22.344128
O 23.202543 19.583633 17.719124
O 21.779904 25.766944 26.538074
O 12.305726 3.028186 23.278399
O 17.543198 14.132902 27.609743
O 0.658379 17.891574 19.793799
O 22.573636 28.539625 4.185395
O 7.898470 26.643228 28.632542
O 18.918998 10.887243 5.405116
O 14.744984 17.168375 6.930684
O 12.778792 10.432440 17.149544
O 5.916807 21.049534 16.607827
O 8.537118 16.490199 29.151759
O 27.358092 22.154434 9.186642
O 14.107887 22.227634 21.035513
O 4.470115 10.566784 26.107755
O 16.075789 27.168766 1.287589
O 13.182807 17.596588 2.586386
O 25.900239 1.388103 1.945430
O 11.454623 24.726943 9.834182
O 6.659009 7.133043 23.530693
O 2.393845 4.450945 20.758612
O 10.583992 17.511543 17.787610
O 12.257957 8.281402 20.470668
O 30.008858 23.154818 6.436849
O 15.534370 25.208693 7.945751
O 7.248620 8.271205 5.636868
O 12.944461 1.388834 0.206402
O 27.918157 13.703779 0.604725
O 10.940426 13.495569 20.072503
O 7.507577 18.877052 28.691228
O 2.536766 9.354753 6.544436
O 11.327292 0.054380 28.150535
O 28.995373 27.737931 16.240990
O 8.664319 9.867366 1.491703
O 7.058750 26.179348 20.595068
O 29.439359 5.724819 8.210995
O 26.051072 29.347587 2.285214
O 24.520763 6.108536 21.571303
O 12.074086 28.516472 16.036491
O 14.343301 21.536799 5.817682
O 27.569885 13.442391 20.830213
O 20.924766 25.985039 29.732976
O 8.386645 25.727904 10.669788
O 18.730337 18.090299 3.453369
O 13.600723 8.588971 29.401969
O 9.948323 2.520352 22.268519
O 4.847781 20.967506 8.752224
O 12.950608 26.161407 4.581694
O 14.214822 10.574490 6.359045
O 4.009012 20.098941 25.347029
O 7.548639 11.646476 29.888222
O 25.386977 24.232838 0.747319
O 1.399666 13.984483 24.570633
O 6.902346 29.934309 8.846502
O 6.389185 11.071880 27.505661
O 19.267323 8.416389 14.392883
O 8.625325 8.361578 15.334963
O 26.781472 3.706504 19.265427
O 16.519298 21.731132 26.020716
O 26.213467 13.222454 26.412901
O 5.423414 7.202010 14.482114
O 17.960656 15.538137 11.383698
O 0.250744 24.436634 22.846824
O 5.538680 0.947872 11.134746
O 1.380658 9.579833 10.047609
O 17.466319 22.734687 21.479165
O 23.032006 6.649042 20.001744
O 4.173506 6.779171 26.578190
O 18.600553 15.629922 16.963945
O 4.241303 16.656098 26.388154
O 1.961393 17.572240 13.773576
O 3.741207 9.790115 12.094513
O 21.552801 14.762360 3.714951
O 1.422870 26.169686 7.562171
O 1.380213 28.210487 28.349249
O 16.495563 11.816910 12.222303
O 1.973118 7.004087 9.879647
O 19.042499 17.266460 25.000462
O 25.534904 29.780523 21.011879
O 12.324153 5.159638 6.983419
O 11.081223 9.070547 15.244963
O 18.926587 5.141359 26.428391
O 4.364554 0.417792 13.446033
O 17.149621 21.057746 11.691426
O 27.558969 1.201840 21.506503
O 14.042703 6.329567 2.655511
O 21.584885 27.185079 8.631067
O 15.666120 25.669937 24.386290
O 20.284984 23.005361 10.605052
O 16.827349 27.550557 23.421408
O 21.106617 10.706483 6.489967
O 18.884262 14.275912 4.305577
O 8.988085 20.522049 4.096663
O 22.504788 23.556690 16.790832
O 19.195117 25.516076 20.202693
O 25.861675 1.974107 27.047936
O 7.157024 13.825151 16.863602
O 8.029272 17.396103 6.495553
O 22.295058 8.611104 10.671131
O 29.737452 16.589648 13.201473
O 12.413237 16.212364 12.819928
O 7.756472 25.589384 18.212077
O 2.364798 28.078254 21.425247
O 23.343365 8.552692 25.261288
O 11.295416 19.575006 3.049715
O 4.289565 11.957137 20.755743
O 19.319024 11.842106 11.960503
O 23.721110 0.477111 14.993219
O 17.978335 19.626249 8.096840
O 14.621816 15.755991 28.939601
O 26.414849 29.756455 14.968424
O 5.266444 24.727021 4.140585
O 25.644164 11.392688 8.401637
O 11.354633 12.944662 17.472995
O 16.718590 2.249766 11.877999
O 10.296182 19.186083 11.505521
O 10.203989 22.032406 27.331093