1960
Ternary SiO2-CaO-P2O5 NPT-MC 15000steps E=-28462.5eV Box=32.068A
Si 7.232236 17.379725 29.210369
Si 16.468253 3.528382 12.504064
Si 2.706193 20.716182 26.040899
Si 17.497364 25.627759 20.179186
Si 30.481374 21.310194 20.944323
Si 2.326962 13.548244 7.423910
Si 2.034884 5.829607 4.502530
Si 11.244028 23.772639 11.192385
Si 29.641335 27.172777 14.912162
Si 25.852953 13.156375 31.275451
Si 15.984412 9.393228 9.787254
Si 11.346409 18.457651 17.217996
Si 12.331354 18.459152 3.722810
Si 26.891022 19.819060 2.049085
Si 14.226651 24.959423 28.818155
Si 23.627422 29.537045 26.088374
Si 12.760579 12.158297 30.354754
Si 23.350536 28.292462 5.436670
Si 27.180092 0.962365 14.833294
Si 20.917764 12.265326 12.182105
Si 13.887119 10.252835 7.877957
Si 16.332772 27.360349 27.829025
Si 0.479102 4.235888 13.905382
Si 6.598265 26.937070 14.180976
Si 18.218905 13.974766 26.143384
Si 19.012429 13.936832 20.304652
Si 14.386462 7.423376 29.005729
Si 2.440460 24.502331 16.110093
Si 29.818639 15.630503 9.623129
Si 22.559191 17.689210 11.172054
Si 8.484953 14.586168 16.461262
Si 26.617274 8.179910 12.491025
Si 4.346602 6.352534 14.738545
Si 6.656586 13.979109 9.507598
Si 16.958433 23.821905 22.431732
Si 18.033977 19.795575 11.887804
Si 15.749251 16.333475 5.611172
Si 25.049317 17.881383 24.433983
Si 19.090065 6.697926 20.123807
Si 19.151018 22.961636 14.751608
Si 19.613326 0.518636 19.208924
Si 22.326441 27.897006 2.581677
Si 5.146512 25.002130 9.845347
Si 1.321207 13.069431 23.280753
Si 21.147578 23.130994 17.159807
Si 11.458907 2.708890 21.931112
Si 17.930421 29.091228 29.652240
Si 24.333242 17.891836 13.571105
Si 24.838738 29.469875 14.534635
Si 27.388236 29.232865 24.665436
Si 15.551249 13.234661 6.261372
Si 22.461673 12.861487 9.584051
Si 5.556711 2.714882 22.693732
Si 23.512581 4.374668 11.769769
Si 17.086157 14.822482 10.116490
Si 15.162396 26.147063 9.496428
Si 6.167596 19.489373 17.259914
Si 9.992677 4.334050 28.969514
Si 10.506679 19.580806 13.168448
Si 17.915058 11.121488 12.651647
Si 14.055792 15.805460 27.588315
Si 6.400613 19.938992 12.538254
Si 15.966153 17.619390 10.327104
Si 22.885848 23.356322 21.318526
Si 30.669822 25.727994 11.383174
Si 14.157163 7.768396 2.837315
Si 7.909637 10.948720 28.320822
Si 6.552928 18.284832 22.432163
Si 18.688105 19.919528 14.674055
Si 12.221999 26.290877 9.828065
Si 14.699610 20.595367 1.373315
Si 27.488023 11.729453 21.207681
Si 18.150459 14.587091 15.964447
Si 8.645199 17.584434 24.654335
Si 3.156997 15.068125 29.908572
Si 6.767102 8.612435 24.184028
Si 18.369769 26.061069 14.899770
Si 22.686922 28.428752 8.352611
Si 27.676015 17.793858 20.597214
Si 7.398809 3.407248 18.100955
Si 26.980199 18.547159 5.141362
Si 5.866403 5.611576 8.466373
Si 23.137169 24.836465 5.480619
Si 30.452317 27.256904 28.384744
Si 13.223766 19.807389 27.639070
Si 1.881667 29.555954 27.806122
Si 2.471774 13.738358 15.051819
Si 18.683796 18.305390 7.703458
Si 7.780725 13.152449 22.296830
Si 15.238157 27.030875 23.606581
Si 0.611567 10.169772 29.316052
Si 6.586565 10.972658 9.309236
Si 0.482549 26.820017 1.137032
Si 6.893559 5.723059 22.682137
Si 27.166764 23.697775 9.153206
Si 30.605789 17.035084 30.137091
Si 21.104652 24.473528 30.487337
Si 25.964152 24.314562 6.252801
Si 8.429178 8.564896 9.903842
Si 21.570512 1.538973 12.292828
Si 26.384060 23.003122 23.704551
Si 29.870623 19.787346 1.263040
Si 2.354846 23.825347 25.906780
Si 13.768025 8.553249 20.600486
Si 3.327948 18.493190 18.161283
Si 30.077744 30.311771 23.830412
Si 16.353275 28.276546 13.915839
Si 18.554850 18.393399 25.630795
Si 25.053942 13.905557 3.060136
Si 20.314500 9.135111 20.625935
Si 29.058098 9.058339 14.614157
Si 20.486991 5.230363 9.683846
Si 14.005589 22.660115 22.294199
Si 15.649728 12.866312 11.776804
Si 27.611978 13.977136 5.411283
Si 29.914917 12.649142 27.731767
Si 18.509224 24.049725 29.074227
Si 3.161025 25.508843 1.553427
Si 15.555954 4.063034 18.900101
Si 24.657519 13.794782 26.327677
Si 14.075141 26.256012 20.899585
Si 7.024231 21.550401 25.462133
Si 11.019665 22.379158 6.710102
Si 4.334831 10.903294 11.638421
Si 21.560847 2.868607 4.165589
Si 0.266449 1.612508 18.141406
Si 24.860926 14.760520 23.724855
Si 25.566436 12.512801 9.507890
Si 4.524440 4.039961 16.973031
Si 19.921993 9.735061 23.773310
Si 15.128304 29.140091 26.109169
Si 22.550388 16.263568 21.640761
Si 27.689878 22.701854 20.923366
Si 1.349544 8.171233 10.963683
Si 3.071302 21.442872 5.590608
Si 25.707231 2.745472 19.163538
Si 26.197600 10.469199 29.953500
Si 15.491145 8.214774 14.222466
Si 19.612474 30.585646 16.022126
Si 22.918616 9.517492 1.781635
Si 4.345557 12.660413 22.196470
Si 28.629172 8.537069 25.011183
Si 2.266360 3.546086 25.967089
Si 26.719296 15.142979 8.328732
Si 15.660473 16.052578 30.098459
Si 28.020273 4.783344 19.108035
Si 14.492079 29.404279 8.247229
Si 16.013567 7.492754 5.306378
Si 0.178581 8.496832 21.032427
Si 10.567809 8.253129 5.237145
Si 29.406391 3.790866 7.996308
Si 7.480735 26.206560 7.466425
Si 18.027498 21.252467 20.679547
Si 1.142650 6.920953 17.726906
Si 18.175012 8.093348 13.223666
Si 24.321761 17.031698 8.377662
Si 7.597415 18.742445 19.435272
Si 23.219757 3.871115 17.493961
Si 22.830300 9.512510 11.858030
Si 26.281579 24.657720 12.168819
Si 27.684404 0.798348 17.772663
Si 2.328835 25.366012 8.566857
Si 7.145642 4.646236 4.556914
Si 13.333952 10.940215 18.688922
Si 19.338223 1.916215 1.912508
Si 3.091204 6.362412 9.249681
Si 6.045258 2.979017 6.741913
Si 18.394224 10.765404 26.076626
Si 18.344424 22.401933 6.583461
Si 11.650080 23.647407 23.488932
Si 1.018270 30.799426 12.194154
Si 1.416168 14.243872 26.039469
Si 6.025016 21.726396 9.643708
Si 4.685279 15.539198 13.919748
Si 24.751820 10.822752 17.337127
Si 29.227302 11.020345 16.770610
Si 26.878951 10.728852 24.085301
Si 1.882728 7.343171 29.570036
Si 14.810392 13.970689 16.508634
Si 17.969331 18.419072 4.752355
Si 25.190218 7.206940 8.105862
Si 2.074509 12.896669 10.266768
Si 16.778622 22.106772 18.035635
Si 8.117412 16.652424 5.073264
Si 15.760195 10.478052 21.649120
Si 20.760719 12.745748 15.215809
Si 11.142764 26.271304 1.600840
Si 20.737242 18.068862 21.362091
Si 4.178781 23.591148 3.686292
Si 28.715964 21.686291 25.342078
Si 3.822708 19.703473 29.377303
Si 25.061941 13.940506 18.273360
Si 8.043638 2.974326 26.630342
Si 23.200196 10.413925 21.195584
Si 29.184370 24.091393 2.004310
Si 3.227084 27.133794 22.314830
Si 25.534271 15.538989 28.297071
Si 4.440554 1.186704 25.181358
Si 11.066517 8.619503 8.268924
Si 4.724888 20.385214 23.832899
Si 15.266417 28.165191 1.995851
Si 20.016234 11.706635 5.846693
Si 15.955345 17.125798 18.983062
Si 9.028711 13.809714 2.532183
Si 18.402564 2.249889 8.001698
Si 7.071334 20.185875 28.432830
Si 24.272070 9.066874 24.392318
Si 16.827442 20.896008 3.513143
Si 21.659817 25.537595 8.521293
Si 12.145068 13.683445 2.878291
Si 5.978375 27.412970 21.117132
Si 28.700144 3.384768 28.105231
Si 11.388866 26.477753 28.760034
Si 12.803462 27.185254 3.716412
Si 8.980248 10.150520 22.447612
Si 30.477500 17.493616 13.888246
Si 9.701175 12.959685 7.056882
Si 12.235373 2.380964 0.481146
Si 23.697274 24.518423 16.075741
Si 20.788716 25.038000 19.536398
Si 13.996380 7.053380 25.966675
Si 12.093817 9.418358 29.562175
Si 7.311146 14.730268 25.144372
Si 21.798826 7.641223 25.420406
Si 26.357944 17.973500 17.952737
Si 11.710508 25.113672 13.874222
Si 4.868494 16.694145 28.142303
Si 7.629862 18.655995 7.563222
Si 10.046840 0.562098 2.131639
Si 26.968442 30.330302 2.192821
Si 8.977190 10.522361 19.129103
Si 6.146870 26.088756 24.400672
Si 27.812196 26.650223 5.785307
Si 10.213354 21.175703 22.074718
Si 14.158208 4.822487 10.802106
Si 23.241161 14.354602 16.193109
Si 13.739470 7.747532 11.554495
Si 10.074376 20.865509 2.809781
Si 10.885306 27.726300 15.648240
Si 30.190695 18.287318 21.261111
Si 3.977738 15.517650 10.652747
Si 14.153282 23.238420 19.899111
Si 30.778625 15.327326 5.743347
Si 16.959301 24.820719 17.272597
Si 3.049603 5.770069 19.363602
Si 25.063591 27.965576 28.119140
Si 2.091373 26.823846 13.966256
Si 0.944218 7.843342 2.188553
Si 10.873687 15.514831 11.736588
Si 25.952122 9.824129 19.879472
Si 24.389689 0.990181 21.066949
Si 30.044195 18.136501 5.827740
Si 2.602498 21.257274 18.906050
Si 4.194173 15.355849 25.634455
Si 4.328840 29.025623 14.288534
Si 22.526229 7.806517 9.349915
Si 15.895370 22.066685 12.133051
Si 28.234887 13.332436 15.018573
Si 23.162451 3.323877 0.573546
Si 11.328229 8.924489 26.357641
Si 6.164946 24.314140 27.051346
Si 4.647775 23.496492 19.482851
Si 5.047077 25.926970 5.091730
Si 3.458629 15.590672 19.658055
Si 15.430546 18.344618 26.428167
Si 16.175484 0.608124 6.191059
Si 4.453913 4.652074 3.219318
Si 16.141624 6.385742 20.907122
Si 27.485874 6.946079 20.628947
Si 5.178981 1.587457 12.491194
Si 14.730883 1.112313 24.477155
Si 8.702521 25.185596 28.614809
Si 15.935072 30.168009 17.001214
Si 3.064222 12.050678 29.618123
Si 13.631735 16.369065 20.526921
Si 21.465778 22.362398 25.981066
Si 3.093863 0.377177 30.097616
Si 7.935913 11.218896 1.193612
Si 19.126438 11.264894 18.629380
Si 19.050005 17.784565 1.607852
Si 19.463842 24.323001 24.444363
Si 13.880280 16.508715 2.790213
Si 14.338107 12.978069 25.213320
Si 29.681313 3.739808 5.293934
Si 18.949161 25.558539 5.402838
Si 20.566537 9.316542 28.130664
Si 23.232484 24.913064 12.839347
Si 16.821909 4.823762 3.781120
Si 1.758398 7.183917 14.103481
Si 15.234512 22.322804 5.526513
Si 28.731797 29.417157 12.814093
Si 25.198556 12.524749 14.756071
Si 19.180900 3.253859 29.299925
Si 15.310330 23.979358 1.271575
Si 17.306312 18.497820 21.534024
Si 21.209898 10.188286 7.943559
Si 10.846971 4.553676 6.807550
Si 21.059639 20.038227 10.612974
Si 25.820797 3.589406 14.051604
Si 25.015688 5.865923 15.930342
Si 20.203581 12.755801 30.535678
Si 6.720892 28.533057 9.145918
Si 27.145118 29.854689 21.540781
Si 7.971125 27.326448 11.237652
Si 27.724937 27.051345 11.223518
Si 3.989264 10.387690 24.698498
Si 22.673040 29.815763 23.213328
Si 9.394962 5.178381 24.448092
Si 6.533956 21.798159 1.916057
Si 6.517186 1.514226 20.320072
Si 28.491786 8.550683 10.132181
Si 8.348594 21.215047 5.165957
Si 29.506929 14.338306 30.665344
Si 9.242767 16.606286 18.573612
Si 29.089704 7.303922 7.634446
Si 28.044407 18.734553 25.502462
Si 1.057322 10.172868 23.825447
Si 5.765570 6.967150 20.252537
Si 23.449782 27.606752 16.604781
Si 25.300616 11.028859 11.959543
Si 17.464756 29.857904 3.235384
Si 29.837052 24.265885 5.262549
Si 20.725745 27.877979 15.161594
Si 23.132124 24.990705 26.075968
Si 3.845913 3.789574 30.804502
Si 18.011660 9.703472 4.411093
Si 1.291721 2.167056 9.447583
Si 16.966846 18.606294 30.320430
Si 10.442145 14.881522 20.725077
Si 28.685940 28.294904 17.698328
Si 30.237753 20.136356 12.209383
Si 16.859739 30.337169 21.197334
Si 5.794622 12.729956 13.501017
Si 23.737736 6.897203 13.228064
Si 1.115046 13.874974 3.021773
Si 20.276743 13.791634 3.669633
Si 2.057948 7.879752 6.897832
Si 9.859248 15.768792 0.513578
Si 4.870810 10.948088 27.496626
Si 0.972137 22.575374 7.798797
Si 11.380967 14.525893 28.560809
Si 1.734050 19.572583 3.530940
Si 4.690280 15.680599 22.508342
Si 24.629600 21.361807 19.941591
Si 20.543047 18.677334 28.326450
Si 19.228258 5.532050 12.365619
Si 8.136276 10.937428 12.954101
Si 12.264298 2.494892 24.593318
Si 1.607130 4.417668 28.740747
Si 24.641411 18.721549 21.672230
Si 19.234806 27.977016 2.021296
Si 13.707811 0.780785 10.011131
Si 3.139107 3.966884 12.440996
Si 4.057926 14.374159 2.484623
Si 14.884315 2.841945 4.572853
Si 29.711718 10.695912 19.264605
Si 0.612675 25.624858 21.848273
Si 4.596958 19.753672 7.700028
Si 20.829504 24.317182 3.253621
Si 26.515377 14.614428 21.011153
Si 12.039020 23.752891 17.393050
Si 2.005719 26.065821 5.709395
Si 27.747902 15.455820 16.935672
Si 11.303207 7.858286 21.875676
Si 11.536117 11.748600 24.963903
Si 25.683643 6.414874 22.883004
Si 21.801384 30.677761 0.484920
Si 7.106188 28.341564 23.596963
Si 8.241765 4.743970 11.602337
Si 20.980187 22.801065 12.082134
Si 13.944364 18.176582 7.947558
Si 21.570845 10.544359 17.159850
Si 8.124446 25.375811 19.649161
Si 17.932135 2.363888 23.114001
Si 10.981212 16.220283 5.629202
Si 13.268457 20.577818 6.000611
Si 28.900921 21.472711 16.680180
Si 12.960749 29.811614 16.280238
Si 16.188681 19.249801 16.310541
Si 22.177296 14.876420 7.179084
Si 17.208253 24.776272 11.255574
Si 2.671044 29.243127 24.595396
Si 19.507599 23.269839 9.157424
Si 15.643688 10.680417 26.742254
Si 17.282075 25.771859 1.090795
Si 4.876567 11.937947 2.438338
Si 16.565433 5.124568 23.388506
Si 2.186949 9.847949 16.300590
Si 15.695431 11.336546 29.613375
Si 17.761543 13.595719 29.360733
Si 19.336990 3.956916 5.639392
Si 8.893931 5.765416 8.902159
Si 11.544189 29.046768 27.040295
Si 30.356968 4.529407 16.832840
Si 21.568655 27.666780 12.173573
Si 28.188140 3.862557 12.119213
Si 16.101006 28.331288 19.588350
Si 23.922399 29.903558 11.577013
Si 4.559842 23.862927 29.688435
Si 0.553544 23.341814 23.818695
Si 11.561158 12.482897 18.969772
Si 9.983575 27.712117 24.764603
Si 20.473608 1.862156 24.213173
Si 16.394172 1.391581 10.531208
Si 28.569494 10.909553 5.728161
Si 25.684397 1.355839 25.746361
Si 22.214904 17.316236 15.296969
Si 22.437269 1.530389 15.367285
Si 28.350529 18.749738 10.440611
Si 12.331781 13.391662 5.947929
Si 10.852742 13.188387 15.751538
Si 29.412788 3.132790 25.094972
Si 5.443227 24.622473 12.570075
Si 6.632723 22.240545 17.329478
Si 12.294930 29.463041 6.248799
Si 5.918568 7.388840 5.561494
Si 22.795153 15.668573 3.520488
Si 27.100637 8.635348 27.670330
Si 23.962899 4.814682 3.100584
Si 20.695581 8.073206 3.400623
Ca 8.700311 6.746780 19.233867
Ca 19.974658 9.287562 0.864358
Ca 7.732693 21.476328 19.922585
Ca 29.937456 6.716399 27.089964
Ca 21.489467 27.545974 28.516320
Ca 22.971721 17.391221 18.624090
Ca 29.798423 1.393342 0.716149
Ca 21.892907 17.577749 6.273427
Ca 28.038890 26.254682 20.694458
Ca 25.915298 22.254601 14.810446
Ca 11.355192 6.671231 10.810963
Ca 12.185935 22.701433 1.138907
Ca 1.230661 19.409406 9.277412
Ca 22.733348 28.791701 19.539802
Ca 5.867860 25.121121 17.023472
Ca 29.072242 16.509105 27.531793
Ca 8.340122 18.635738 2.163581
Ca 7.816300 0.946869 11.323992
Ca 29.772856 1.995326 20.887510
Ca 15.862448 21.708607 28.291833
Ca 12.217924 6.047140 1.065860
Ca 25.760765 28.507022 19.294585
Ca 5.547446 14.984416 7.009450
Ca 1.896581 29.448439 6.392018
Ca 15.609286 13.472323 19.548645
Ca 12.207401 29.412648 30.363172
Ca 2.972775 12.595145 18.944174
Ca 22.321039 2.114423 9.350409
Ca 8.265425 14.119176 13.082110
Ca 15.449212 0.817757 1.106671
Ca 22.449453 13.358878 19.333724
Ca 13.949167 1.350503 28.470375
Ca 15.158336 4.240247 1.236467
Ca 23.788375 8.353385 28.427920
Ca 10.922978 24.137549 20.611840
Ca 13.531622 24.319900 7.402948
Ca 2.600086 28.876175 2.932917
Ca 24.151791 0.665193 3.510334
Ca 26.149434 5.110159 6.006837
Ca 12.681325 24.518109 3.824000
Ca 25.517040 20.225220 8.527634
Ca 16.865952 9.352958 18.802492
Ca 4.458582 26.957346 26.654759
Ca 18.354328 0.777742 12.647928
Ca 23.430080 22.672015 9.543205
Ca 9.179486 24.803108 15.966585
Ca 29.411707 15.757294 23.964014
Ca 10.547060 16.704089 14.891329
Ca 26.100575 28.736983 8.574877
Ca 19.986475 16.087013 9.437519
Ca 30.431787 10.695452 8.778054
Ca 23.425097 4.103310 24.150142
Ca 22.081305 26.250509 22.213015
Ca 9.160253 24.041585 9.349630
Ca 21.750957 13.063501 22.727674
Ca 18.529819 8.414803 8.984770
Ca 28.661334 30.521396 27.167490
Ca 9.228168 24.215348 25.340926
Ca 1.806263 28.555731 16.966247
Ca 20.791374 3.914888 26.650371
Ca 18.320338 23.412891 3.512377
Ca 9.478164 12.767060 10.240736
Ca 9.165262 16.220848 8.531069
Ca 17.495397 0.635137 26.555503
Ca 0.738670 14.317217 12.334298
Ca 7.895742 23.629341 4.386751
Ca 26.758478 2.928274 3.818779
Ca 26.786357 4.384551 25.815442
Ca 12.029328 2.470320 18.536405
Ca 10.909170 3.188157 10.056342
Ca 10.853818 9.445058 2.191247
Ca 22.901920 12.154448 5.009449
Ca 18.475420 14.895441 6.713315
Ca 10.687610 17.884492 27.390961
Ca 23.161648 17.476330 27.552502
Ca 15.839838 23.813722 25.583893
Ca 7.763651 9.298858 3.671989
Ca 2.617838 1.123229 15.166819
Ca 9.649638 20.708816 9.829217
Ca 20.920697 0.437325 27.775450
Ca 20.097682 28.135253 20.915292
Ca 12.502876 18.145276 11.031000
Ca 15.409863 26.507217 5.996819
Ca 1.503574 15.866281 17.179865
Ca 3.446010 18.108993 11.963024
Ca 6.875599 7.701241 16.572597
Ca 30.187801 24.156121 18.191332
Ca 3.508682 7.910293 22.245592
Ca 28.414822 20.642568 7.490043
Ca 4.686883 9.434578 14.100956
Ca 21.417983 8.227365 14.833583
Ca 16.342500 16.230663 13.418997
Ca 26.696830 3.046285 22.698550
Ca 11.467726 8.454698 17.643881
Ca 10.596370 26.274163 6.305240
Ca 2.543005 16.534568 7.817886
Ca 28.552115 22.228781 29.540467
Ca 27.399974 19.144134 14.246996
Ca 12.296008 5.360319 4.413048
Ca 20.828772 20.929950 4.646928
Ca 14.958671 16.340576 23.601577
Ca 12.850858 19.911018 20.884490
Ca 21.980698 21.325938 20.097810
Ca 9.372730 1.057346 24.113671
Ca 13.301039 9.112572 24.055404
Ca 8.279502 9.787571 6.914931
Ca 28.249737 6.727714 4.107369
Ca 27.559786 7.936345 17.640970
Ca 1.877673 10.862093 4.700667
Ca 18.910915 21.211102 30.491406
Ca 29.059048 22.386218 10.669236
Ca 1.527983 17.818634 25.159254
Ca 11.508532 18.961784 30.616273
Ca 20.543842 21.028874 23.234254
Ca 1.397360 10.787810 12.674192
Ca 8.946752 23.003105 13.158609
Ca 4.505655 18.402635 1.660855
Ca 6.929268 5.572320 0.821295
Ca 4.803300 1.636519 3.864294
Ca 24.414490 24.813255 28.859479
Ca 26.094978 1.834547 29.650435
Ca 27.704073 15.809214 13.087737
Ca 29.596643 10.340905 2.415196
Ca 18.373644 7.846503 16.822734
Ca 10.548585 27.088741 21.930903
Ca 18.161308 21.536079 27.077388
Ca 9.876146 1.625252 17.038792
Ca 5.494834 22.519584 14.540034
Ca 2.938961 30.618642 20.591968
Ca 20.218299 20.451935 7.775338
Ca 10.811310 10.259249 12.003621
Ca 19.362521 4.130212 18.195600
Ca 16.888162 5.426617 8.555462
Ca 16.230213 11.311529 15.857726
Ca 3.802001 23.350775 22.658701
Ca 13.582060 3.076813 7.103863
Ca 23.118447 11.572869 29.279699
Ca 5.934843 5.497910 27.798004
Ca 7.002057 29.796245 26.683136
Ca 12.337153 22.964994 27.249519
Ca 18.526790 16.074223 23.364545
Ca 8.810373 17.566332 11.170536
Ca 21.283132 0.664220 6.412458
Ca 25.963713 21.794313 4.490935
Ca 3.427268 18.629928 15.037063
Ca 29.208766 23.291386 13.460480
Ca 12.511141 29.846335 22.851628
Ca 7.901332 28.065785 17.328859
Ca 2.324942 26.312352 19.131874
Ca 13.603066 17.251281 13.997652
Ca 13.183613 13.319769 22.057166
Ca 10.685289 0.605669 8.104568
Ca 29.628847 18.022540 17.785715
Ca 14.929303 23.415660 15.099764
Ca 8.819325 29.306121 5.266177
Ca 17.753873 2.816281 15.991550
Ca 22.039443 21.396674 29.099280
Ca 2.878285 3.482486 6.801041
Ca 21.255230 18.950916 24.995771
Ca 13.771488 26.165189 15.932307
Ca 23.484468 4.751562 7.865871
Ca 14.413165 2.522905 15.711262
Ca 3.669993 10.284265 8.583590
Ca 30.031178 14.561295 19.732886
Ca 24.901905 25.843978 9.838253
Ca 13.565226 6.858228 8.230456
Ca 9.512380 23.318249 1.325745
Ca 30.302051 6.204989 22.698950
Ca 13.010706 13.659727 13.731448
Ca 21.069110 27.388567 24.651810
Ca 8.779148 7.793304 29.871092
Ca 9.043843 20.497456 15.393939
Ca 6.476787 13.463573 19.464013
Ca 8.413084 3.272255 14.555146
Ca 6.452821 25.193941 1.101232
Ca 4.189341 30.755979 9.409897
Ca 4.764699 13.931995 16.927116
Ca 24.857628 15.633663 5.771270
Ca 5.527621 2.208035 28.376153
Ca 29.413349 26.600057 8.516590
Ca 28.018735 8.207298 0.699850
Ca 11.949509 15.648804 8.903918
Ca 16.284385 20.518403 24.136410
Ca 9.556770 4.785939 21.061051
Ca 21.199148 6.643221 29.904233
Ca 22.240969 11.574261 26.282726
Ca 14.514181 2.800714 21.414258
Ca 23.969391 18.811937 5.042430
Ca 16.072230 20.645966 8.653500
Ca 12.906791 18.908975 23.663502
Ca 2.165154 22.335228 0.537601
Ca 17.976288 27.586255 10.675867
Ca 12.968711 15.647736 17.454380
Ca 11.347371 26.921792 18.727053
Ca 9.084525 0.741740 28.841104
Ca 19.795965 15.777205 12.730816
Ca 23.804971 22.332509 1.256989
Ca 17.640650 6.431135 28.828463
Ca 21.708021 6.603485 17.979324
Ca 19.821421 4.535028 1.581488
Ca 26.855135 29.738637 5.518043
Ca 10.372493 20.653491 25.273231
Ca 20.244160 5.538561 23.149859
Ca 29.492296 29.010526 4.244305
Ca 25.146520 27.941064 0.860234
Ca 11.402621 2.132208 4.658673
Ca 22.411134 20.762100 14.767232
Ca 30.686950 5.589902 10.959601
Ca 7.593322 17.588316 14.591649
Ca 30.425360 19.639658 27.979902
Ca 27.642831 27.747731 29.981693
Ca 5.228779 10.729864 5.590601
Ca 20.425147 19.324102 17.807543
Ca 5.670210 28.775525 2.071132
Ca 28.200327 25.856588 23.953675
Ca 12.862800 21.011543 14.828869
Ca 5.615925 20.136788 4.113141
Ca 5.973673 1.235746 16.602618
Ca 26.632637 24.737700 17.826806
Ca 7.519446 7.262008 13.378796
Ca 26.039233 10.250758 3.594208
Ca 7.232234 11.512822 16.508262
Ca 16.556082 13.010981 23.347939
Ca 13.054250 10.150731 4.611214
Ca 3.201161 27.200575 10.692793
Ca 25.498396 26.901095 3.589634
Ca 24.385061 17.151722 1.189574
Ca 24.044885 20.915033 25.229382
Ca 20.081046 29.752943 9.735361
Ca 26.373701 4.335962 9.794364
Ca 26.685464 5.743478 28.985117
Ca 7.492459 23.193948 22.382875
Ca 10.363198 20.913738 18.635079
Ca 26.950828 1.267687 9.621250
Ca 21.374226 15.807369 30.422699
Ca 11.179875 1.735377 12.878836
Ca 12.946068 5.462397 23.508130
Ca 2.993438 21.814000 12.658844
Ca 16.805996 8.556735 24.421817
Ca 21.966568 2.744580 20.337708
Ca 18.084746 11.879223 8.730433
Ca 26.979340 18.583012 28.781944
Ca 30.692006 28.878683 20.757112
Ca 28.570488 12.111173 11.426466
Ca 6.108421 10.404461 20.688866
Ca 3.792651 8.440330 3.021386
Ca 12.981139 10.532169 14.805231
Ca 25.060798 26.624509 24.151497
Ca 4.728481 3.255885 9.977061
Ca 13.939773 29.531213 12.721353
Ca 17.842850 14.770271 2.510918
Ca 26.651888 24.975245 26.747134
P 4.864127 8.230371 29.589304
P 26.288994 24.874882 1.713530
P 9.436832 13.093909 26.419548
P 25.076169 20.583670 12.275845
P 8.440009 27.355875 3.367953
P 7.729270 1.003780 8.136871
P 18.310231 28.503645 6.955837
P 16.252323 3.379576 28.582878
P 13.444636 21.888722 10.129776
P 24.941346 7.295213 2.263328
P 8.616994 7.423712 26.309939
P 7.617865 12.943330 5.066960
P 17.871666 28.626173 23.549058
P 12.339326 4.492652 26.826217
P 11.771717 5.134436 14.067439
P 4.725806 10.234800 17.702205
P 27.761325 4.441261 1.197932
P 29.806111 30.283686 8.232875
P 23.604400 4.673678 28.156518
P 20.994272 15.024243 25.415267
P 5.242729 16.635444 4.591432
P 24.929143 1.747915 6.917943
P 7.148162 27.982988 29.102282
P 25.687891 10.319712 7.372708
P 25.001621 25.791307 21.071777
P 10.205730 4.949276 16.725058
P 18.856724 25.946887 26.653830
P 25.355599 21.904871 28.135442
P 5.078840 29.308642 5.291091
P 27.615420 13.218655 25.830317
P 8.964375 29.966804 14.534056
P 16.409094 8.794804 0.673806
P 9.249707 30.492963 19.788737
P 1.691069 21.659915 15.849859
P 24.504108 20.202642 17.148038
P 1.312463 1.528285 4.356877
P 29.794160 24.823673 27.184903
P 2.508443 3.562929 21.927605
P 11.279024 15.771092 23.775741
P 9.216910 6.101369 3.184310
P 23.056309 21.337849 6.552757
P 7.494500 1.911293 1.169971
P 10.945122 28.622807 10.787106
P 9.723997 21.397691 28.684651
P 21.985759 19.761184 1.830679
P 16.231732 11.495599 3.356068
P 19.751297 5.124944 15.477103
P 23.178168 6.066341 21.225509
P 5.028370 28.381144 18.277601
P 17.853347 6.219818 25.580228
P 9.398069 9.553676 15.370615
P 14.934410 6.540611 17.085291
P 20.801467 6.935810 6.476795
P 3.234131 6.281688 25.815359
P 18.253027 16.014777 18.090915
P 13.390693 12.429003 9.990007
O 23.828291 13.187944 9.661582
O 11.358493 15.188651 22.373254
O 10.204955 21.024505 13.655230
O 18.837263 28.219318 8.595724
O 17.027811 28.011937 28.711374
O 5.182563 27.537346 5.133069
O 27.034587 11.434895 22.595584
O 19.922233 1.693377 8.214446
O 2.396904 5.377337 8.317154
O 7.383997 21.961452 9.032721
O 17.952939 9.483008 12.350005
O 20.831173 3.217799 5.154145
O 12.292112 7.967940 25.966604
O 14.587070 28.122600 24.524937
O 9.462805 13.438624 15.835228
O 18.914593 1.439369 14.916928
O 27.337224 28.770564 11.930299
O 24.189806 0.399347 25.964992
O 3.723736 16.771999 10.083802
O 12.074479 10.647590 30.241200
O 15.393643 25.047820 16.912143
O 5.755068 28.274924 14.326815
O 19.631840 8.271196 28.953873
O 21.916770 13.650247 15.949776
O 10.317211 23.508782 17.614722
O 4.634281 19.943178 13.038672
O 30.156201 19.075769 7.163620
O 25.027618 2.327982 20.773524
O 5.327754 24.412624 28.649495
O 14.602630 18.460520 24.776595
O 9.628197 27.399631 16.392097
O 7.325686 9.732876 9.329735
O 27.684328 12.354411 5.280695
O 10.110277 16.920567 23.588385
O 30.081778 17.937964 0.743277
O 0.495325 27.877492 2.537271
O 21.193259 19.557545 22.713173
O 6.547646 2.113747 21.922104
O 17.435378 2.633302 9.309293
O 9.842614 0.990678 14.616733
O 11.275787 10.106022 25.149687
O 23.192389 15.796068 7.682549
O 11.037622 24.832631 22.685540
O 26.359391 1.457778 18.677570
O 13.122750 11.442779 19.303321
O 5.699256 6.724523 7.144163
O 27.863524 2.662672 11.100065
O 0.826697 4.786919 4.922222
O 14.522616 27.596491 3.317248
O 3.976599 26.805248 2.428373
O 7.827650 5.163387 12.742083
O 6.091933 4.579015 23.326982
O 17.552857 30.556473 10.243818
O 19.836916 5.536540 5.683702
O 20.489787 1.457412 11.732812
O 16.756718 12.285560 29.298585
O 8.469880 20.028062 6.600008
O 28.134768 14.952351 15.705295
O 27.172001 26.996185 9.791440
O 14.267506 7.679976 13.310595
O 24.409347 25.210925 26.239671
O 26.883166 26.061994 12.219006
O 25.890810 7.873742 2.985484
O 7.159221 25.129291 24.109701
O 18.607421 20.108492 25.216786
O 10.871856 14.726667 25.089387
O 20.002850 23.016644 13.291637
O 2.754293 6.673510 14.364398
O 29.493492 15.787301 30.071930
O 25.630000 16.379322 8.567176
O 28.198123 30.103624 8.682245
O 1.972492 6.592710 18.859140
O 28.702915 12.876691 26.774951
O 16.974422 3.791029 18.308082
O 2.525831 3.741726 27.425227
O 20.198527 28.133380 11.341022
O 24.624817 24.142865 6.143620
O 19.693718 14.639946 26.138217
O 17.187992 8.791428 5.115409
O 25.954418 7.916511 27.438097
O 6.529897 25.560498 8.845178
O 24.330472 21.557227 13.211237
O 11.752959 9.612365 27.812107
O 6.082555 16.463902 22.969660
O 8.977301 1.555036 1.463679
O 25.874922 21.213635 2.224623
O 13.026746 30.616811 14.683136
O 25.784326 24.746447 3.039104
O 13.502314 17.224271 9.174314
O 22.029476 22.360529 6.503947
O 7.689644 26.109431 3.263332
O 14.801650 24.065242 5.572805
O 5.226509 23.154338 9.871625
O 19.780157 29.364124 6.354761
O 8.945526 8.381009 11.321883
O 26.851672 23.910409 10.969313
O 17.098942 28.195859 6.467377
O 8.639536 12.938079 5.951858
O 22.378496 22.393382 22.419629
O 23.156553 19.618163 17.297316
O 21.624940 25.860646 26.506937
O 12.313928 3.030204 23.293915
O 17.663821 14.082946 27.576539
O 0.728027 17.526448 19.818640
O 22.685994 28.460177 4.200163
O 7.855608 26.622654 28.336787
O 18.825548 10.887530 5.369581
O 14.652694 17.301892 6.631225
O 12.709256 10.448368 17.262477
O 6.148344 21.089659 16.687698
O 8.436632 16.788311 29.512919
O 27.271743 22.045529 9.057712
O 14.089552 22.173591 20.890679
O 4.657700 10.386595 26.155764
O 16.208841 26.672284 1.224000
O 12.875528 17.458440 2.607245
O 25.971688 1.448071 1.912354
O 11.596401 24.641521 9.718561
O 6.624650 7.064617 23.586538
O 2.457226 4.404310 20.672892
O 10.499147 17.456934 17.943980
O 12.131186 8.289265 20.625375
O 29.971813 23.115077 6.422988
O 15.748598 25.501406 8.352952
O 7.250273 8.421998 5.579705
O 13.211046 1.452401 30.105041
O 27.851923 13.833440 0.784879
O 11.032034 13.399332 20.066159
O 7.327309 18.868605 28.386491
O 2.565447 9.348420 6.450728
O 11.334843 30.118451 28.169299
O 28.860805 28.046867 16.114223
O 8.610486 9.857725 1.258202
O 7.063455 26.196798 20.608796
O 29.604026 5.928104 8.577420
O 26.131385 29.001012 2.322816
O 24.782915 6.198733 21.438627
O 12.048747 28.760193 15.954417
O 14.454493 21.451390 5.791292
O 27.850744 13.393566 21.219958
O 20.982893 25.874612 29.807088
O 8.750557 25.581522 10.702122
O 18.841872 18.049385 3.517022
O 13.650135 8.547858 29.442781
O 9.954954 2.522032 22.283363
O 5.201439 20.841289 8.765046
O 13.261503 25.958727 4.713517
O 14.177503 10.554521 6.190193
O 3.834848 19.929907 25.447316
O 7.509859 11.766149 29.633055
O 25.799317 23.805022 0.708799
O 1.238753 14.081539 24.505665
O 6.858295 30.183837 8.629599
O 6.609876 10.910830 27.158077
O 19.243677 8.353581 14.569108
O 8.469539 8.348341 15.527157
O 27.003932 3.836879 19.186791
O 16.524785 21.668128 25.728949
O 26.309338 13.532624 26.409351
O 5.349759 7.204363 14.431145
O 17.990154 15.549539 11.359198
O 30.162435 24.624605 22.837816
O 5.721665 0.890796 11.339302
O 1.606482 9.578251 10.154428
O 17.415923 22.735492 21.391188
O 22.838485 6.572840 19.739655
O 4.469496 6.418578 26.542465
O 18.702035 15.524366 16.854700
O 4.286501 16.715005 26.420282
O 2.071387 17.187204 13.779422
O 3.704243 9.545013 11.967505
O 21.599844 14.819232 3.631450
O 1.616350 26.215785 7.164286
O 1.678258 28.337229 28.475778
O 16.595446 11.830511 11.996219
O 2.240398 7.122740 10.308174
O 19.086162 17.149691 24.920369
O 25.717307 29.585912 20.990123
O 12.332367 5.163077 6.988074
O 10.946331 9.269296 14.978296
O 18.931312 5.430032 26.351431
O 4.338713 30.678277 13.315158
O 17.080100 21.011591 11.646953
O 27.432289 1.081606 21.520601
O 13.852523 6.243992 2.497137
O 21.478214 27.219326 8.584860
O 15.551976 25.333981 24.190650
O 20.243461 22.840314 10.929493
O 16.877841 27.625848 23.421478
O 21.036387 10.650069 6.348639
O 18.959605 14.214393 4.301087
O 9.218410 20.578170 4.041594
O 22.685906 23.392565 16.812032
O 18.763142 25.874438 20.418227
O 25.943501 1.815577 27.394734
O 7.161794 13.834367 16.874843
O 7.463743 17.173316 6.581052
O 22.046542 8.564569 10.821460
O 29.845448 16.485578 13.136503
O 12.578271 16.143880 12.494812
O 7.833803 25.502171 18.054798
O 2.464630 28.180924 21.418921
O 23.300936 8.382408 25.393135
O 11.190135 19.455239 3.082786
O 4.481689 11.858459 20.651785
O 19.284783 11.750279 11.862850
O 23.766723 30.628565 15.471581
O 18.097577 19.629131 8.115783
O 14.353382 15.716410 28.935227
O 26.373732 29.820301 15.130556
O 5.277946 24.817085 4.113606
O 25.596330 11.499558 8.535048
O 11.356701 12.848855 17.531455
O 16.669594 1.872434 12.199701