1960
 Atoms. Timestep: 0
Si 7.17168 17.2867 29.1289
Si 16.2605 3.56163 12.7304
Si 2.79546 20.6728 26.2594
Si 17.5787 25.732 20.2641
Si 30.4244 21.2565 21.0788
Si 2.46172 13.3893 7.33553
Si 2.03055 5.81719 4.49294
Si 11.2061 23.7405 11.0593
Si 29.5782 27.1149 14.8804
Si 26.3192 13.5701 30.532
Si 15.8375 8.98011 9.7102
Si 11.6493 18.5317 17.3439
Si 12.2799 18.4419 3.7043
Si 26.8093 19.8073 2.0081
Si 14.2922 24.8581 28.6478
Si 23.5222 29.2338 25.8153
Si 12.7334 12.1324 30.2901
Si 23.3008 28.2322 5.42509
Si 27.1222 0.960315 14.8017
Si 20.8357 12.0769 12.1831
Si 13.8552 10.1927 7.85665
Si 16.2525 27.14 27.8097
Si 0.492695 4.21988 13.8803
Si 6.63229 26.8816 14.14
Si 18.1801 13.945 26.0877
Si 18.9746 13.8364 20.3005
Si 14.5172 7.33742 28.883
Si 2.65409 24.4228 15.8882
Si 29.5019 15.7649 9.49664
Si 22.7188 17.2986 11.2582
Si 8.46688 14.5551 16.4262
Si 26.6953 8.32429 12.6048
Si 4.21446 6.18353 14.5854
Si 6.77257 14.1459 9.83081
Si 16.9388 23.6691 22.3751
Si 18.0793 19.7361 11.6696
Si 15.5476 16.4445 5.57833
Si 25.0073 18.0074 24.5176
Si 19.0344 6.48426 20.0549
Si 19.1052 22.9308 14.642
Si 19.4409 0.578684 18.9711
Si 22.2259 28.0936 2.63892
Si 5.08568 24.766 9.67761
Si 1.1131 13.1724 23.0511
Si 21.0006 23.1609 17.2725
Si 11.4345 2.70312 21.8844
Si 17.8834 29.2155 29.4651
Si 24.4427 17.7632 13.6288
Si 24.6461 29.4906 14.6025
Si 27.3299 29.1706 24.6129
Si 15.4859 13.3322 6.06505
Si 22.3881 12.7893 9.59528
Si 5.51626 3.11503 22.8499
Si 23.4625 4.36535 11.7447
Si 17.0927 14.9149 10.1597
Si 15.2174 26.1305 9.33625
Si 6.05266 19.4234 17.1248
Si 10.0324 4.31997 28.9109
Si 10.4843 19.5391 13.1404
Si 17.8769 11.0978 12.6247
Si 13.852 15.7439 27.5752
Si 6.17591 19.9894 12.4601
Si 15.9393 17.7126 10.4576
Si 22.8278 23.4725 21.2711
Si 30.529 25.6211 11.3664
Si 14.1704 7.79968 2.87114
Si 7.89279 10.9254 28.2605
Si 6.56202 18.119 22.506
Si 18.6483 19.8771 14.6428
Si 12.1637 26.0432 9.39845
Si 14.6683 20.5515 1.37039
Si 27.493 11.8109 21.0634
Si 18.1798 14.4212 15.6762
Si 8.78986 17.4379 24.4925
Si 3.01149 15.1309 29.9164
Si 6.72286 8.56008 24.0547
Si 18.3628 25.8891 14.9749
Si 22.6386 28.3682 8.33482
Si 27.3329 17.6236 20.6595
Si 7.26444 3.38755 18.1937
Si 26.9309 18.5641 5.07934
Si 5.6696 5.7189 8.23123
Si 23.0157 24.9754 5.6291
Si 30.1507 27.4668 28.4604
Si 13.1956 19.7652 27.5802
Si 2.1135 29.5997 27.5509
Si 2.33762 13.7311 15.064
Si 18.644 18.2664 7.68705
Si 8.08698 13.072 22.3867
Si 15.2057 26.9733 23.5563
Si 0.51687 10.0453 29.1558
Si 6.55485 10.9435 9.23877
Si 0.459942 26.7742 1.44533
Si 6.90163 5.74227 22.6634
Si 27.1089 23.6473 9.13371
Si 30.5406 16.9988 30.0729
Si 21.0597 24.4214 30.4224
Si 25.8736 24.2912 6.55466
Si 8.70861 8.78266 9.97888
Si 21.7318 1.96038 12.3045
Si 26.5002 23.161 23.7924
Si 29.807 19.7452 1.26035
Si 2.34983 23.7746 25.8516
Si 13.6933 8.48276 20.573
Si 3.32086 18.4538 18.1226
Si 30.0741 30.2199 23.8713
Si 16.2303 28.0177 14.1126
Si 18.461 18.4194 25.6054
Si 25.2382 13.6807 3.39347
Si 20.2214 9.30353 20.7445
Si 28.9978 9.00727 14.4482
Si 20.3071 5.26384 9.55436
Si 14.1361 22.3304 22.5127
Si 15.5319 12.9316 11.7152
Si 27.5147 14.0466 5.3917
Si 29.8512 12.6222 27.6727
Si 18.4698 23.9985 29.0123
Si 3.34293 25.6457 1.62332
Si 15.5605 4.06704 18.6883
Si 24.605 13.7654 26.2716
Si 13.9928 26.2691 20.6049
Si 7.00927 21.5045 25.4079
Si 10.8423 22.4087 6.74984
Si 4.40109 11.0498 11.418
Si 21.4279 2.96798 4.15922
Si 0.46658 1.51308 17.9818
Si 24.6047 15.0371 23.4196
Si 25.4418 12.5509 9.47242
Si 4.503 4.07254 16.9794
Si 20.0377 9.90482 23.8431
Si 14.4928 28.885 25.9025
Si 22.628 16.0828 21.4348
Si 27.6309 22.6535 20.8788
Si 1.34333 8.22359 10.9326
Si 3.06476 21.3972 5.5787
Si 25.6135 2.66449 19.1884
Si 26.1418 10.4469 29.8897
Si 15.3045 7.86138 14.4503
Si 19.5707 30.5205 15.988
Si 22.8698 9.49722 1.77784
Si 4.09972 12.6422 22.2854
Si 28.8079 8.60475 24.9934
Si 2.31987 3.563 25.9488
Si 26.7478 15.121 8.28349
Si 15.6421 15.9559 30.0708
Si 28.1087 4.58417 19.3121
Si 14.506 28.9569 8.17983
Si 15.9994 7.51507 5.2962
Si 0.53336 8.47079 21.0745
Si 10.5453 8.23555 5.22599
Si 29.405 4.00432 8.17894
Si 7.20028 25.875 7.51475
Si 17.9891 21.2072 20.6355
Si 1.13534 7.0316 17.7073
Si 18.1363 8.07611 13.1955
Si 24.2066 17.0688 8.50971
Si 7.66391 18.7077 19.5966
Si 23.1703 3.86287 17.4567
Si 22.6158 9.45563 11.8755
Si 26.2256 24.6052 12.1429
Si 27.6335 0.83133 17.7525
Si 2.11854 25.1089 8.71877
Si 7.1083 4.52941 4.55216
Si 13.7432 10.7549 18.423
Si 19.4783 1.80574 1.89272
Si 3.08462 6.34886 9.22998
Si 6.00226 3.02588 6.71171
Si 18.3858 10.7408 26.0774
Si 18.379 22.55 6.73762
Si 11.5849 23.6551 23.3742
Si 1.321 30.3768 11.7867
Si 1.71623 14.3408 25.9219
Si 5.97098 21.6836 9.64561
Si 4.6753 15.5061 13.8901
Si 24.6991 10.7997 17.3002
Si 29.2511 10.9521 16.6552
Si 26.8217 10.706 24.034
Si 1.81663 7.32648 29.315
Si 15.0811 14.011 16.0863
Si 17.9216 18.2781 4.78509
Si 25.0719 7.34322 8.13186
Si 2.07009 12.8692 10.2449
Si 16.6327 21.9418 17.9149
Si 8.12432 16.6732 5.02631
Si 15.6174 10.6366 21.8206
Si 20.7165 12.7186 15.1834
Si 10.9904 26.3671 1.54065
Si 20.5563 18.1564 21.2933
Si 4.16988 23.5409 3.67844
Si 28.6548 21.6401 25.2881
Si 3.99631 19.8696 28.976
Si 25.1988 13.8256 18.2548
Si 8.06703 3.16295 26.5176
Si 23.1775 10.2583 21.3854
Si 29.1676 23.9632 2.22532
Si 3.22021 27.076 22.2673
Si 25.467 15.7341 28.2709
Si 4.43201 1.37751 25.1281
Si 11.1112 8.61504 8.29368
Si 4.69716 20.329 23.8099
Si 15.2339 28.1052 1.9916
Si 19.9736 11.6817 5.83424
Si 16.0014 17.2602 18.7695
Si 9.00948 13.7803 2.52679
Si 18.4091 2.22868 7.97006
Si 7.01265 20.2757 28.1947
Si 24.2458 9.01247 24.1059
Si 16.7916 20.8515 3.50566
Si 21.6323 25.4739 8.44035
Si 12.1192 13.6543 2.87216
Si 6.02624 27.2842 20.9951
Si 28.6401 3.36015 28.01
Si 11.4939 26.223 28.6199
Si 12.9567 27.3282 3.81384
Si 8.96112 10.1289 22.3998
Si 30.4878 17.5215 14.0832
Si 9.92597 12.8337 7.24226
Si 12.0244 2.4838 0.740034
Si 23.6468 24.4662 16.0415
Si 20.6103 25.1563 19.5682
Si 13.7622 6.90765 26.0443
Si 11.9869 9.17665 29.3725
Si 7.41488 14.6376 25.0447
Si 21.7438 7.6699 25.3411
Si 26.3104 17.8903 17.8441
Si 11.4876 24.9892 13.8384
Si 4.56263 16.8137 27.8619
Si 7.556 18.645 7.32375
Si 10.0418 0.661771 2.2263
Si 26.911 30.2657 2.18815
Si 9.06942 10.3348 19.1308
Si 6.18118 25.7193 24.5736
Si 27.7444 26.5891 5.83295
Si 10.1916 21.1306 22.0277
Si 14.0392 4.89568 10.7422
Si 23.2348 14.3701 16.0062
Si 13.8086 7.93235 11.7389
Si 10.2544 20.7048 2.98695
Si 10.7678 27.616 15.44
Si 30.3663 18.1391 21.3461
Si 3.87761 15.3307 10.7319
Si 14.1631 23.1608 19.6072
Si 30.5147 15.103 5.54425
Si 16.8601 24.8519 17.343
Si 3.07657 5.40381 19.4727
Si 25.1144 27.8528 28.0493
Si 2.2252 26.7591 13.7821
Si 0.965579 7.75213 2.29239
Si 10.885 15.6241 11.9114
Si 25.7786 9.55993 19.716
Si 24.3749 0.836754 20.9617
Si 30.0281 18.1917 5.80402
Si 2.54459 21.2671 18.859
Si 4.3737 15.3533 25.3568
Si 4.31962 28.9638 14.2581
Si 22.2519 7.70778 9.32737
Si 15.8316 22.0091 12.087
Si 28.2376 13.2978 14.8972
Si 23.0973 3.38074 0.581134
Si 11.3041 8.90548 26.3015
Si 6.25317 24.1793 27.0223
Si 4.90478 23.2569 19.5624
Si 5.12103 25.9585 5.13426
Si 3.53099 15.6762 19.5332
Si 15.3796 18.1716 26.229
Si 16.3342 0.598016 6.21635
Si 4.52221 4.8227 3.11748
Si 16.0843 6.38903 20.8768
Si 27.6005 7.25938 20.7033
Si 5.15449 1.48854 12.6088
Si 15.1527 1.31951 24.5155
Si 8.65836 25.1214 28.6137
Si 15.7919 29.7141 16.8212
Si 3.11586 12.0106 29.7394
Si 13.6027 16.3342 20.4832
Si 21.3609 22.3676 25.8597
Si 3.19052 0.466546 30.1445
Si 7.91901 11.195 1.19107
Si 19.0857 11.2409 18.5897
Si 19.1864 17.9709 1.93449
Si 19.4709 24.3337 24.1043
Si 13.9282 16.2709 2.67852
Si 14.1814 13.2816 25.536
Si 29.6962 3.71144 5.17504
Si 18.9088 25.5041 5.39133
Si 20.5691 9.18996 27.7153
Si 23.183 24.86 12.812
Si 16.8728 4.8586 3.68026
Si 1.34491 7.21108 13.92
Si 15.5625 22.5319 5.50376
Si 28.6706 29.3545 12.7868
Si 25.2089 12.3367 14.7521
Si 19.3768 3.38978 29.3331
Si 15.1103 23.6135 1.34822
Si 17.3673 18.4043 21.406
Si 21.2305 10.2783 8.04327
Si 10.8345 4.53931 6.82006
Si 21.2056 20.0581 10.8965
Si 25.8243 3.65962 13.9143
Si 24.7739 5.90402 15.9064
Si 20.2746 12.8854 30.5078
Si 6.66018 28.409 9.08626
Si 27.0873 29.7911 21.4949
Si 8.23666 27.0106 11.3683
Si 27.6773 27.1024 11.2704
Si 4.15989 10.3748 24.4876
Si 22.5294 29.8022 23.0608
Si 9.28054 5.04185 24.3934
Si 6.11757 22.056 1.73332
Si 6.55067 1.34811 20.521
Si 28.4311 8.53247 10.1106
Si 8.42144 21.0326 5.48446
Si 29.3732 14.1983 30.4205
Si 9.40824 16.5415 18.6908
Si 29.1561 7.0438 7.58852
Si 28.0257 18.6428 25.3871
Si 1.05507 10.1512 23.7747
Si 5.75329 6.95231 20.2094
Si 23.3986 27.5181 16.5026
Si 25.3399 10.978 12.0197
Si 17.4824 29.8781 3.31826
Si 29.7735 24.2142 5.25134
Si 20.6816 27.8186 15.1293
Si 22.9471 24.9436 25.717
Si 3.78553 3.58845 30.4165
Si 18.0929 9.70464 4.43327
Si 1.28897 2.16244 9.42746
Si 16.8091 18.7498 30.0349
Si 10.3543 14.7475 20.8977
Si 28.6522 27.9628 17.7422
Si 30.3601 19.9662 12.3612
Si 17.0784 30.445 21.0671
Si 5.79565 12.6273 13.7453
Si 23.7742 7.02372 13.1787
Si 1.15511 13.7108 2.91998
Si 20.2318 13.7361 3.65394
Si 2.09277 7.90328 6.89171
Si 9.52689 15.989 0.477204
Si 4.92855 10.6747 27.5744
Si 0.905844 22.4717 7.61768
Si 11.3802 14.4229 28.5601
Si 1.79068 19.418 3.56116
Si 4.68029 15.6472 22.4604
Si 24.8086 21.3728 19.9493
Si 20.4955 18.7465 28.1746
Si 18.9466 5.29494 12.2784
Si 8.00145 10.7603 12.9384
Si 12.4071 2.47168 24.6873
Si 1.45621 4.32042 28.8116
Si 24.5728 18.7548 21.6717
Si 19.1703 27.8485 1.99394
Si 13.6145 1.04573 10.0057
Si 3.14755 3.99055 12.5843
Si 4.23768 14.4891 2.53219
Si 14.6456 2.64322 4.38847
Si 29.8737 10.8957 19.4797
Si 0.634028 25.6003 21.7889
Si 4.60014 19.7167 7.64106
Si 21.0191 24.3669 3.46772
Si 26.4589 14.5833 20.9664
Si 12.0929 23.5651 17.3043
Si 2.00768 26.0049 5.7069
Si 27.6888 15.4229 16.8996
Si 11.0746 8.00836 21.7382
Si 11.5994 11.6232 24.774
Si 25.5977 6.38668 22.7747
Si 21.9897 30.4966 0.683264
Si 7.31438 28.3164 23.5952
Si 8.24093 4.22304 11.4193
Si 20.9355 22.7525 12.0564
Si 14.2922 18.21 8.00753
Si 21.5249 10.5219 17.1233
Si 8.11316 25.3526 19.6959
Si 17.6321 2.49267 22.9766
Si 10.9545 16.2543 5.58141
Si 13.2762 20.4099 6.06564
Si 28.7389 21.303 16.5861
Si 12.8873 29.8665 16.111
Si 16.1542 19.2088 16.2758
Si 22.1227 14.7713 7.28042
Si 17.1716 24.7235 11.2316
Si 2.82599 29.0804 24.5528
Si 19.342 23.565 9.39453
Si 15.4441 10.6381 26.6219
Si 17.1941 25.7589 1.08411
Si 4.9971 11.6596 2.2128
Si 16.2767 5.06715 23.5522
Si 2.01667 9.73866 16.2631
Si 15.662 11.3124 29.5503
Si 17.4911 13.7163 29.1695
Si 19.152 4.12313 5.6806
Si 8.75249 5.83005 8.88521
Si 11.5196 28.9849 26.9827
Si 30.0463 4.31313 16.799
Si 21.5789 27.6852 12.2003
Si 28.1281 3.85433 12.0934
Si 16.0143 28.3292 19.4997
Si 23.7876 29.7992 11.5478
Si 4.55013 23.8121 29.6252
Si 0.675469 23.1533 23.5073
Si 11.4088 12.3338 18.9624
Si 10.1041 27.6439 24.7288
Si 20.43 1.85819 24.1616
Si 16.7169 1.65571 10.3372
Si 28.2431 10.9155 5.69237
Si 25.535 1.3949 25.8151
Si 22.0902 17.1228 15.2567
Si 22.3994 1.49239 15.4621
Si 28.2329 18.5264 10.5338
Si 12.3716 13.4101 5.76469
Si 11.0333 13.2267 15.8712
Si 29.5171 2.97511 24.9975
Si 5.39836 24.5765 12.6251
Si 6.79747 22.3151 17.1063
Si 12.2284 29.2171 6.09277
Si 6.01674 7.38277 5.72722
Si 22.7466 15.6352 3.51299
Si 27.2547 8.66103 27.7102
Si 23.8345 4.64504 3.29388
Si 20.6515 8.05601 3.39338
Ca 8.68178 6.73241 19.1929
Ca 19.77 9.23499 0.886169
Ca 7.55997 21.6241 20.0018
Ca 29.8107 6.64261 26.9731
Ca 21.4084 27.3885 28.2905
Ca 22.7586 17.1739 18.5731
Ca 29.5922 1.34343 0.736539
Ca 21.5369 17.681 6.37588
Ca 28.0012 26.232 20.57
Ca 25.8601 22.2072 14.7789
Ca 11.2059 6.48197 11.0104
Ca 12.1929 22.6778 0.979028
Ca 1.12248 19.1845 9.30017
Ca 22.5663 28.5064 19.5379
Ca 5.84619 25.3418 16.8202
Ca 29.0468 16.4418 27.226
Ca 8.06092 18.7793 1.78463
Ca 7.82534 1.12339 11.3933
Ca 29.7596 2.01982 20.9305
Ca 15.6897 21.6046 28.2412
Ca 12.1919 6.03426 1.06359
Ca 25.7639 28.3232 19.1796
Ca 5.53563 14.9525 6.99452
Ca 1.9064 29.4105 6.43252
Ca 15.4589 13.3674 19.4569
Ca 12.1814 29.35 30.2985
Ca 2.83935 12.5284 18.7982
Ca 22.1461 2.00321 9.31792
Ca 8.41318 14.191 13.2364
Ca 15.1999 1.10476 1.06837
Ca 22.405 13.1796 19.4826
Ca 13.8721 1.23923 28.0986
Ca 14.9378 4.51191 1.13568
Ca 23.7045 8.26293 28.3737
Ca 10.6976 24.008 20.3104
Ca 13.5028 24.2681 7.38718
Ca 2.7142 28.8028 2.86737
Ca 24.2907 0.814252 3.40453
Ca 26.2813 5.12253 6.20836
Ca 12.5512 23.8466 4.10342
Ca 25.5079 20.1323 8.55778
Ca 16.6561 9.27468 18.7441
Ca 4.10797 26.8954 26.9727
Ca 18.3305 0.581414 12.6366
Ca 23.3335 22.5075 9.70918
Ca 9.08986 24.7335 16.3769
Ca 29.4121 15.64 23.6024
Ca 10.6533 16.7279 14.7817
Ca 26.1222 28.8085 8.71688
Ca 20.0299 15.8794 9.23499
Ca 30.2656 10.7009 8.62618
Ca 23.4101 4.09531 24.244
Ca 22.0918 26.3276 22.2214
Ca 8.94714 23.9214 9.13332
Ca 21.6642 13.0017 22.7533
Ca 18.5963 8.39128 8.90399
Ca 28.5541 30.4157 27.143
Ca 9.34707 23.9656 25.3095
Ca 1.76691 28.6084 16.9232
Ca 20.7056 3.86819 26.469
Ca 17.9685 23.6276 3.51177
Ca 9.54693 12.8447 10.2659
Ca 9.21558 16.2316 8.47536
Ca 17.6074 0.786995 26.5697
Ca 0.555599 14.4122 12.6037
Ca 7.64453 23.8347 4.69141
Ca 26.6727 2.86861 3.7428
Ca 26.7021 4.38791 25.6861
Ca 12.1392 2.31458 18.9597
Ca 10.8529 3.05471 9.92584
Ca 10.8307 9.42494 2.18658
Ca 22.9533 11.7981 5.19423
Ca 18.376 14.7482 6.71704
Ca 10.6678 17.8648 27.3059
Ca 23.0212 17.2734 27.3307
Ca 15.8061 23.763 25.5294
Ca 7.842 9.21879 3.54155
Ca 2.49342 1.36788 15.309
Ca 9.54344 20.6671 9.8146
Ca 20.8779 0.551675 27.6645
Ca 19.7545 28.0564 20.9311
Ca 12.465 18.2532 11.0171
Ca 15.3221 26.4241 5.77657
Ca 1.20456 15.8411 16.9262
Ca 3.55333 18.0818 11.972
Ca 6.79563 7.50065 16.5782
Ca 29.9395 24.0156 18.2681
Ca 3.46272 7.89436 22.1649
Ca 28.3543 20.5986 7.47409
Ca 4.75788 9.38961 14.1184
Ca 21.3438 8.22102 14.8512
Ca 16.248 16.1236 13.4132
Ca 26.6406 3.00598 22.6935
Ca 11.4433 8.43669 17.6063
Ca 10.5738 26.2182 6.29181
Ca 2.71638 16.5829 7.72783
Ca 28.5739 22.226 29.4859
Ca 27.5294 18.919 14.0243
Ca 12.4807 5.59147 4.4453
Ca 20.6987 20.918 4.48232
Ca 14.9302 16.2685 23.4409
Ca 12.5236 19.6134 20.7188
Ca 21.713 21.0226 20.2409
Ca 9.21969 1.12307 24.1023
Ca 13.3231 9.08347 23.905
Ca 8.20248 9.9744 6.91838
Ca 27.9229 6.69614 4.0029
Ca 27.6431 7.89727 17.499
Ca 1.83339 10.7932 4.74293
Ca 18.8669 21.1632 30.4814
Ca 29.0506 22.2194 10.7552
Ca 1.55664 17.7015 24.8236
Ca 11.5147 18.981 30.5468
Ca 20.4086 21.0491 23.211
Ca 1.59268 10.8189 12.8413
Ca 8.67781 22.7827 13.1447
Ca 4.36439 18.0493 1.31457
Ca 6.82205 5.64661 0.821135
Ca 4.78381 1.83146 3.56212
Ca 24.2636 24.7666 28.8769
Ca 25.9854 1.84702 29.6078
Ca 27.5937 15.9809 12.9312
Ca 29.4925 10.3897 2.36193
Ca 18.6084 7.89012 16.7753
Ca 10.4437 27.0348 21.8174
Ca 18.4144 20.9993 27.2121
Ca 9.85511 1.62179 17.0025
Ca 5.48852 22.3534 14.4639
Ca 2.95896 30.3527 20.5915
Ca 20.271 20.488 7.84192
Ca 10.8757 10.2354 11.881
Ca 19.4212 3.8616 18.505
Ca 16.8727 5.41632 8.50564
Ca 16.3103 11.1978 15.91
Ca 3.82481 23.3778 22.5533
Ca 13.4022 2.94312 7.16458
Ca 23.1672 11.6899 29.2221
Ca 5.92016 5.75536 27.7559
Ca 6.9524 29.6336 26.5565
Ca 12.2334 22.9648 27.182
Ca 18.6621 15.9593 23.0982
Ca 8.68434 17.5744 11.1369
Ca 21.2378 0.662805 6.3988
Ca 25.9398 21.7586 4.4326
Ca 3.49233 18.6107 15.0148
Ca 29.1388 23.471 13.8392
Ca 12.3998 29.6491 22.7019
Ca 7.98417 27.996 17.3012
Ca 2.42288 26.1674 19.1047
Ca 13.6516 17.4431 14.0335
Ca 13.2089 13.2576 21.9582
Ca 10.6985 0.760442 8.03548
Ca 29.4235 18.0066 17.896
Ca 14.8043 23.3723 15.1314
Ca 8.80054 29.2437 5.25496
Ca 17.5082 2.7324 16.0781
Ca 21.9925 21.3511 29.0373
Ca 2.70021 3.52609 6.80648
Ca 21.5469 18.519 25.0094
Ca 13.6675 26.287 15.7557
Ca 23.3195 4.67772 7.75864
Ca 14.2015 2.55443 15.6167
Ca 3.54492 10.2366 8.47001
Ca 30.0681 14.6555 19.8441
Ca 24.8041 25.9136 9.66364
Ca 13.6367 6.71695 8.02713
Ca 9.34508 23.0891 1.50291
Ca 30.0006 5.82027 22.9683
Ca 13.135 13.8281 13.6029
Ca 20.9661 27.4489 24.9401
Ca 8.69661 7.73847 29.8246
Ca 8.87392 20.3592 15.457
Ca 6.38957 13.1519 19.2518
Ca 8.45857 3.40459 14.5393
Ca 6.6099 25.3233 1.28451
Ca 3.90411 30.2157 9.4379
Ca 4.83868 13.8458 16.8072
Ca 24.7363 15.6922 5.7941
Ca 5.51099 2.26898 28.2447
Ca 29.3507 26.5434 8.49845
Ca 28.1469 7.97795 0.742368
Ca 12.0474 15.5458 8.69334
Ca 16.2497 20.4747 24.085
Ca 9.48667 4.71032 20.9352
Ca 21.2909 6.57277 29.8494
Ca 22.0176 11.6068 26.1144
Ca 14.4535 2.62911 21.3766
Ca 23.9289 18.7407 5.09885
Ca 16.1317 20.9996 8.50331
Ca 12.8793 18.8687 23.6131
Ca 1.80224 21.7738 0.630651
Ca 17.9526 27.8095 10.7528
Ca 12.8264 15.8039 17.4167
Ca 11.3383 27.0067 18.4848
Ca 9.2601 0.90593 28.6122
Ca 19.7538 15.7436 12.7037
Ca 23.8894 22.3096 1.05945
Ca 17.8682 6.64566 28.7676
Ca 21.7548 6.63894 17.9393
Ca 19.5877 4.90159 1.81924
Ca 26.945 29.5852 5.60584
Ca 10.3504 20.6095 25.2194
Ca 20.2528 5.47237 22.9488
Ca 29.4358 29.0522 3.99693
Ca 24.5689 28.0987 0.747613
Ca 11.1671 2.15408 4.82793
Ca 22.4363 20.6347 14.5455
Ca 30.4781 5.41 10.7362
Ca 7.48158 17.5839 14.3817
Ca 30.2201 19.7089 27.6787
Ca 27.6112 27.8144 29.9508
Ca 4.95507 10.8533 5.6233
Ca 20.4755 19.2936 17.7339
Ca 5.71199 28.7776 2.03918
Ca 28.3295 25.944 23.9287
Ca 12.8765 20.8878 14.7865
Ca 5.45248 20.2665 4.09553
Ca 6.01211 1.2143 16.3457
Ca 26.5956 24.6338 17.8395
Ca 7.50343 7.24654 13.3503
Ca 25.8914 10.174 3.39721
Ca 7.21683 11.4883 16.4731
Ca 16.5113 13.0938 23.1056
Ca 13.2277 10.0273 4.37934
Ca 3.36556 27.4371 10.8081
Ca 25.3437 27.1254 3.74021
Ca 24.5027 17.2931 1.085
Ca 24.0045 21.0293 24.8237
Ca 19.9102 29.8266 9.60628
Ca 26.338 4.28668 9.72987
Ca 26.4837 5.93701 28.9043
Ca 7.33154 23.1847 22.5068
Ca 10.2527 21.1402 18.4273
Ca 26.8142 1.17527 9.79182
Ca 21.3287 15.7737 30.3579
Ca 11.4834 1.78422 13.0953
Ca 12.8968 5.42547 23.3644
Ca 2.83744 21.5819 12.6918
Ca 16.7702 8.53851 24.3698
Ca 21.9875 2.81821 20.3174
Ca 17.9897 11.9335 8.69044
Ca 26.6681 18.5626 28.7714
Ca 30.3723 28.9109 20.6135
Ca 28.7215 11.9728 11.6017
Ca 6.09541 10.3823 20.6448
Ca 3.92505 8.44045 2.86684
Ca 13.0504 10.447 14.9293
Ca 24.982 26.6375 24.1936
Ca 4.71841 3.24895 9.95581
Ca 13.9931 29.38 12.7314
Ca 17.7124 14.7779 2.26083
Ca 26.6557 24.8678 26.6355
P 4.8214 8.25197 29.5495
P 26.233 24.8219 1.70988
P 9.46774 12.9495 26.5459
P 25.072 20.5611 12.3088
P 8.60218 27.053 3.27699
P 7.66507 1.06371 8.21424
P 18.6056 28.0693 6.88083
P 16.4298 3.32005 28.4323
P 13.416 21.8421 10.1082
P 24.9133 7.31725 2.29069
P 8.59864 7.4079 26.2539
P 7.64279 12.8735 5.07373
P 17.8336 28.5652 23.4989
P 12.4859 4.3072 27.0781
P 11.7087 4.99769 14.2332
P 4.71574 10.213 17.6645
P 27.8773 4.43449 1.28622
P 29.5533 29.987 8.09208
P 23.7707 4.62467 27.9865
P 20.9664 14.9617 25.3862
P 5.17694 16.5928 4.54328
P 24.9302 1.82081 6.87991
P 7.10908 27.8316 28.9457
P 25.6897 10.2275 7.34001
P 24.8413 25.7879 20.9359
P 10.3687 5.17396 16.7714
P 18.7138 25.8751 26.7495
P 25.5253 21.5984 28.1571
P 5.08953 29.0716 5.29924
P 27.5566 13.1905 25.7753
P 8.89326 29.9466 14.5107
P 16.3102 8.5917 0.745338
P 9.27386 30.0638 19.9874
P 1.67454 21.5484 15.8657
P 24.4836 20.2129 17.1867
P 1.39063 1.60048 4.43085
P 29.7307 24.7708 27.127
P 2.5031 3.55534 21.8809
P 11.255 15.7375 23.7251
P 9.26034 6.14664 3.21572
P 23.0072 21.2924 6.5388
P 7.36291 1.97082 1.13117
P 11.0175 28.5085 10.9516
P 9.71311 21.4144 28.6063
P 21.8487 19.6542 1.82585
P 16.0556 11.7417 3.36902
P 19.6303 5.21005 15.2989
P 23.1288 6.05342 21.1803
P 4.87024 28.3755 18.2826
P 17.8825 6.19393 25.5966
P 9.5366 9.52032 15.2392
P 14.9026 6.52668 17.0489
P 20.5337 6.84875 6.17398
P 3.1834 6.42204 25.4564
P 18.5906 16.0993 18.1629
P 13.1382 12.3125 9.96716
O 23.9187 13.0381 9.69179
O 11.3343 15.1563 22.3256
O 10.2187 21.0015 13.6151
O 18.6846 28.0025 8.38022
O 17.1144 27.9279 28.757
O 5.20239 27.5771 5.0406
O 26.9493 11.4323 22.533
O 19.8798 1.68977 8.19695
O 2.45502 5.23368 8.33536
O 7.41385 21.9601 9.05178
O 17.9147 9.46281 12.3237
O 20.4644 3.17318 5.41692
O 12.4009 7.80055 25.9168
O 14.556 28.0627 24.4727
O 9.44265 13.41 15.8015
O 18.8373 1.24254 14.8341
O 27.6136 28.6592 11.7505
O 24.089 0.598797 25.8609
O 3.74353 16.7675 10.0707
O 12.0358 10.6188 30.1723
O 15.4763 25.1231 16.6696
O 5.74281 28.2147 14.2963
O 19.8309 8.32862 28.7974
O 21.8109 13.7031 15.919
O 10.5684 23.3374 17.6753
O 4.62441 19.9007 13.0109
O 30.0807 18.9662 7.1655
O 25.0056 2.29292 20.6598
O 5.33369 24.1536 28.3312
O 14.7857 18.4868 24.7821
O 10.0156 27.07 16.6734
O 7.55496 9.75334 9.46159
O 27.6576 12.4812 5.44731
O 10.0831 16.7207 23.7553
O 30.0306 18.1641 0.974903
O 0.47071 28.0569 2.30589
O 21.0508 19.0232 22.5522
O 6.41879 2.37451 21.7646
O 17.5402 2.61809 9.28628
O 9.82165 0.988568 14.5856
O 11.4442 10.0629 25.2322
O 23.1447 16.0307 7.6921
O 10.8231 24.8361 22.652
O 26.3534 1.34609 18.5602
O 12.8754 11.8526 19.3483
O 5.57691 6.88437 7.18269
O 27.4656 2.64771 11.3461
O 0.860602 4.78219 4.89417
O 14.4729 27.5731 3.29513
O 4.1158 26.815 2.3798
O 7.94261 5.03494 12.742
O 5.96825 4.56397 23.1875
O 17.6402 30.4763 10.3162
O 19.765 5.60448 5.74414
O 20.3979 1.33766 11.7705
O 16.7625 12.295 29.2002
O 8.22184 19.8601 6.58776
O 28.0492 14.7849 15.4936
O 27.1417 26.9855 9.76723
O 14.2444 7.78473 13.2384
O 24.3053 25.309 26.4132
O 26.834 26.1064 12.1781
O 26.0048 7.61845 3.22582
O 7.49661 24.9867 24.0719
O 18.5361 19.859 24.7721
O 10.9909 14.7004 24.7026
O 19.975 22.9105 13.3093
O 2.79885 6.87391 14.5133
O 29.4642 15.734 30.0607
O 25.5479 16.1574 8.50389
O 28.3253 29.912 8.85567
O 2.04933 6.45726 18.8017
O 28.592 12.8768 26.7755
O 17.113 3.67559 18.432
O 2.32729 3.76495 27.592
O 20.2657 28.0554 11.4273
O 24.3463 24.2044 5.99726
O 19.6398 14.6555 26.1106
O 17.1195 8.67538 5.17662
O 25.918 7.95218 27.3659
O 6.28718 25.1443 8.66112
O 24.2282 21.4833 13.1094
O 11.5702 9.39984 27.8779
O 5.98635 16.5428 22.5552
O 8.6918 1.4396 1.54754
O 25.8795 21.0778 2.16333
O 13.3532 30.3878 14.6943
O 25.7392 24.6613 3.11034
O 13.2136 17.453 8.87295
O 21.8492 22.201 6.44533
O 7.74049 25.8349 3.39973
O 14.908 23.9843 5.41917
O 5.1634 23.1723 9.85938
O 19.4651 29.1715 6.36946
O 8.86146 8.44384 11.4977
O 26.6612 24.0255 10.6766
O 17.1442 28.1895 6.42997
O 8.77494 13.0866 6.01733
O 22.1865 22.5296 22.3015
O 23.2442 19.5179 17.5959
O 21.748 25.7292 26.4992
O 12.2877 3.02375 23.2443
O 17.5175 14.1122 27.5693
O 0.61261 17.7192 19.8987
O 22.4271 28.5506 4.15772
O 7.8869 26.6042 28.5906
O 18.769 10.8467 5.32407
O 14.8022 17.2343 6.79345
O 12.8003 10.3791 17.242
O 5.90814 21.0187 16.5835
O 8.55619 16.4939 29.3664
O 27.2886 22.0662 9.06588
O 14.0912 22.1306 20.8952
O 4.42765 10.5531 26.0719
O 16.0986 26.9093 1.30016
O 13.1801 17.7235 2.6158
O 25.8623 1.38607 1.94258
O 11.2591 24.78 9.86163
O 6.61054 7.04957 23.5363
O 2.52431 4.37332 20.6148
O 10.5343 17.3584 17.9027
O 12.1458 8.32162 20.5529
O 29.9649 23.1209 6.42742
O 15.5834 25.3239 8.01189
O 7.23483 8.40406 5.56782
O 12.9255 1.3868 30.2061
O 27.9074 13.808 0.725782
O 10.9244 13.4758 20.0431
O 7.49658 18.8494 28.6492
O 2.53305 9.34105 6.53485
O 11.3107 30.0543 28.1093
O 28.9529 27.6973 16.2172
O 8.58799 9.83147 1.44863
O 7.04841 26.141 20.5649
O 29.4363 5.59243 8.22685
O 25.9339 29.0673 2.43945
O 24.5649 6.20656 21.5884
O 12.0564 28.4747 16.013
O 14.3819 21.5101 5.74238
O 27.5295 13.4227 20.7997
O 20.9382 25.8195 29.7436
O 8.48931 25.6072 10.6148
O 18.7029 18.0638 3.44831
O 13.5808 8.57639 29.3589
O 9.93375 2.51666 22.2359
O 5.07758 20.7412 8.76887
O 12.9222 26.0626 4.70796
O 14.194 10.559 6.34973
O 4.00314 20.0695 25.3099
O 7.68684 11.5265 29.7404
O 25.3859 24.0994 0.747542
O 1.17914 14.068 24.4064
O 6.95788 29.9562 8.8087
O 6.45313 11.1485 27.4952
O 19.2391 8.40406 14.3718
O 8.61269 8.34933 15.3125
O 26.7528 3.75598 19.3582
O 16.4951 21.6993 25.9826
O 26.2533 13.5038 26.3531
O 5.41547 7.19146 14.4609
O 17.9949 15.4571 11.2974
O 30.1149 24.5666 22.8701
O 5.38911 0.939674 11.143
O 1.60306 9.55785 10.1328
O 17.4318 22.5454 21.348
O 22.9148 6.50938 19.8584
O 4.30099 6.71278 26.4486
O 18.6622 15.4913 16.8188
O 4.23509 16.6317 26.3495
O 1.95852 17.5465 13.7534
O 3.71585 9.90736 12.1927
O 21.4251 14.7805 3.67983
O 1.64557 25.9168 7.34351
O 1.42923 28.2262 28.263
O 16.4714 11.7996 12.2044
O 2.17429 7.0107 10.3432
O 19.1413 17.3196 24.8169
O 25.4975 29.7369 20.9811
O 12.3061 5.15208 6.97319
O 10.9513 9.01757 15.273
O 18.8098 5.22719 26.264
O 4.48063 30.4198 13.5361
O 17.1245 21.0269 11.6743
O 27.5186 1.20008 21.475
O 13.9015 6.28291 2.62781
O 21.6466 27.1033 8.53978
O 15.4753 25.6336 24.2888
O 20.1323 22.9106 10.6505
O 16.8027 27.5102 23.3871
O 21.0757 10.6908 6.48046
O 18.8566 14.255 4.29927
O 9.10716 20.5441 4.13635
O 22.5331 23.5927 16.7561
O 19.167 25.4787 20.1731
O 25.8368 1.94571 27.2151
O 7.14654 13.8049 16.8389
O 7.98196 17.2986 6.51582
O 22.2624 8.59849 10.6555
O 29.8078 16.4998 13.0996
O 12.1798 16.1394 12.722
O 7.74511 25.5519 18.1854
O 2.45938 28.1209 21.3733
O 23.2648 8.45543 25.2933
O 11.1663 19.4138 3.07622
O 4.24182 12.0071 20.7837
O 19.2356 11.7675 11.9991
O 23.6423 30.5413 15.2675
O 17.952 19.5975 8.08498
O 14.5125 15.6021 29.0395
O 26.1208 29.8523 15.0135
O 5.25873 24.6908 4.13452
O 25.6066 11.376 8.38933
O 11.338 12.9257 17.4474
O 16.6941 2.24647 11.8606
O 10.1049 19.2934 11.5719
O 10.0915 21.9266 27.2557
O 26.8678 16.1605 27.7417
O 5.98394 4.14479 17.6255
O 9.45471 15.8438 5.05268
O 26.3449 9.91327 12.6122
O 15.1822 27.6807 8.88819
O 27.7513 28.6651 20.5976
O 6.39889 29.6678 5.4334
O 11.5512 17.2723 4.55543
O 10.4547 6.20499 17.855
O 24.9844 11.0171 15.7084
O 15.8366 29.6037 20.4324
O 4.2742 20.5056 6.22876
O 9.97265 14.0219 8.15673
O 23.7219 16.9016 12.4731
O 0.716371 19.0219 4.66534
O 18.5097 12.6429 19.1991
O 24.2571 20.9344 15.9797
O 7.24867 14.9856 8.5664
O 7.89645 0.458211 20.3745
O 8.43879 7.07561 2.37111
O 13.9244 13.3107 6.16609
O 2.4702 20.6959 14.9526
O 5.37385 9.36635 24.0295
O 29.27 30.2314 6.66961
O 30.2393 7.99683 14.7015
O 14.6145 16.9047 26.8323
O 7.0001 12.5392 21.3875
O 15.1577 26.1547 28.3953
O 12.1291 7.48404 22.7605
O 24.3606 9.70624 20.4214
O 19.0681 1.90489 23.2581
O 22.8575 8.37786 13.0454
O 4.05744 15.6536 12.3336
O 3.20182 2.37966 25.5237
O 6.58449 19.4519 18.6294
O 18.7487 24.0761 6.18001
O 1.9327 10.8854 29.7225
O 10.792 28.8271 6.72014
O 2.7155 18.3656 2.92012
O 7.13573 18.8107 16.2226
O 9.76923 27.7501 11.4329
O 14.5002 15.2274 21.2687
O 16.875 30.275 4.77462
O 16.6878 5.47903 25.0171
O 5.34323 10.4956 10.2239
O 6.46096 7.13 18.8992
O 21.9632 25.0948 6.86105
O 30.0681 24.1996 11.6899
O 18.3001 24.3632 14.5829
O 18.3098 25.6605 11.769
O 25.4644 7.03092 0.941968
O 15.059 5.02808 17.432
O 7.62758 26.9864 12.8554
O 24.1042 27.7198 8.48677
O 12.7594 23.2506 18.8158
O 21.841 10.1164 27.8977
O 5.93947 7.26879 29.5298
O 3.74954 17.0896 18.8455
O 11.7461 3.89801 20.8991
O 3.27566 14.3203 25.8558
O 6.52979 16.1167 4.89052
O 22.331 19.9353 6.6407
O 16.3926 28.8533 18.0348
O 19.9418 1.94296 19.6549
O 11.2921 24.618 12.3242
O 28.6279 5.56158 0.658163
O 18.6176 10.0865 24.6122
O 28.9345 29.434 24.6993
O 22.704 29.4237 1.73985
O 14.3845 12.0616 30.1506
O 4.99518 25.1415 23.7601
O 25.3974 1.58141 5.48556
O 19.3666 16.4889 1.52506
O 17.5947 25.0886 29.7876
O 29.6434 3.61767 12.7768
O 21.7646 9.59894 20.8233
O 14.6476 9.63357 25.7099
O 3.0252 20.2801 27.8091
O 20.4105 6.99945 2.24659
O 17.1671 5.04043 2.11097
O 30.1667 20.4815 29.9334
O 9.05114 5.08163 10.31
O 25.7158 14.6305 22.3783
O 4.6706 26.8529 21.6844
O 19.0995 2.7769 0.668523
O 29.7172 22.4051 24.4253
O 7.83492 11.2402 18.7233
O 5.94415 23.034 18.2931
O 17.2619 26.8062 14.3819
O 14.2781 28.7289 0.877462
O 19.8332 13.3666 2.0461
O 10.2732 22.3608 29.5699
O 6.7956 28.1497 22.1377
O 20.4854 24.3726 18.1457
O 1.66391 23.6765 8.31966
O 19.7115 12.6933 6.97525
O 21.324 4.16078 8.92338
O 28.3012 20.1192 24.7619
O 2.25866 6.86066 5.6791
O 22.2257 11.4058 8.8577
O 10.7638 3.79847 17.245
O 17.9801 18.5818 1.05586
O 9.10112 15.2073 17.7797
O 4.90206 22.4008 2.8267
O 26.6915 8.37981 20.0548
O 11.3694 12.585 6.63734
O 28.5263 9.78456 15.7794
O 2.6223 14.3083 10.6596
O 18.9508 25.3313 25.314
O 29.4372 25.5489 14.6761
O 24.3388 18.2542 7.59568
O 17.5731 7.32196 26.4803
O 7.39803 12.0792 13.6409
O 8.18136 18.43 8.83416
O 8.25371 17.7013 3.82567
O 2.64657 25.5095 14.6661
O 1.76969 4.29889 22.8798
O 1.92067 21.6756 6.72037
O 5.79158 29.3356 17.6554
O 20.9176 7.50034 4.88884
O 2.73035 13.9022 2.76327
O 24.7805 19.1829 12.8721
O 23.3938 26.5944 5.42832
O 3.44488 7.56824 29.4075
O 28.9227 1.49599 18.3786
O 26.333 26.247 1.37107
O 8.33854 13.8134 26.1666
O 26.4896 11.0009 20.1365
O 10.121 9.26895 9.39672
O 23.1117 10.7391 17.5251
O 17.169 19.8476 28.98
O 5.09533 25.3671 11.1836
O 12.0332 7.74554 5.15064
O 18.3935 5.97449 15.5491
O 12.7257 1.86896 9.08917
O 5.35107 19.0385 23.0508
O 24.5294 18.9522 23.2504
O 29.9522 17.3379 15.5419
O 21.9221 18.741 11.4236
O 24.8456 21.0826 18.3571
O 13.0961 19.3526 4.82739
O 15.6239 3.91169 4
O 14.717 8.03986 4.39136
O 21.0488 16.7612 14.1352
O 24.3262 21.3849 28.9824
O 23.5475 0.659863 22.3185
O 28.8672 4.56038 17.8468
O 9.75911 28.7061 14.8186
O 10.7515 3.1915 29.8434
O 14.0604 9.41131 19.2892
O 26.2977 26.813 28.148
O 11.5275 1.12653 24.6657
O 19.5489 20.0065 10.9355
O 29.2703 19.6837 11.2198
O 26.6644 30.3506 25.4394
O 17.5558 25.6866 4.55497
O 12.9466 24.5373 14.2511
O 3.00601 7.60705 8.15252
O 16.514 12.6952 2.33487
O 24.609 10.3961 6.37233
O 25.4817 9.70493 18.1134
O 16.3707 6.21055 22.4311
O 9.7974 16.0028 20.1345
O 20.653 22.1722 27.2784
O 27.2189 4.95874 2.48215
O 14.5116 2.984 18.9782
O 0.927444 9.41535 22.3995
O 16.9496 18.1581 26.1412
O 6.09459 25.4835 26.1198
O 4.32381 16.6154 5.79309
O 18.9851 0.810143 17.4225
O 18.8147 29.949 28.3265
O 14.8328 27.2841 19.6469
O 16.5762 1.95279 24.1226
O 12.1433 13.1288 29.1692
O 24.0541 4.2978 10.2678
O 17.5254 4.02446 23.1562
O 5.27316 12.0312 15.0894
O 15.576 6.79238 6.60044
O 6.71842 3.8296 26.7998
O 9.69433 7.07143 4.40979
O 6.77907 5.93996 21.1277
O 23.2946 27.0167 2.34983
O 6.28995 20.5435 1.60015
O 10.5594 5.74978 2.65598
O 11.556 12.2368 14.8044
O 19.8585 26.4397 14.9951
O 25.9115 24.2482 8.1535
O 17.934 25.757 16.6538
O 21.9783 13.9333 25.8406
O 12.3173 12.8162 1.57305
O 27.7867 8.22377 13.8598
O 19.4831 5.14044 20.8406
O 24.2019 28.0744 15.2075
O 7.9699 30.0336 15.6311