1960
Frame 1 Step=3000 T=8000K E=-23206.9eV Box=31.999A
Si 7.033186 17.119834 29.279119
Si 16.259853 3.561488 12.729894
Si 2.386334 20.659605 26.345488
Si 17.226200 25.745354 20.592693
Si 30.344320 21.297910 21.112088
Si 2.319847 13.526280 7.218554
Si 2.207500 5.829318 4.641211
Si 11.205654 23.739556 11.058860
Si 29.577024 27.113822 14.879808
Si 26.318153 13.569560 30.530786
Si 15.836870 8.979753 9.709814
Si 11.677592 18.638795 17.166600
Si 12.181726 18.210197 3.471796
Si 26.808234 19.806512 2.008020
Si 14.291632 24.857112 28.646661
Si 23.637203 29.117389 26.002658
Si 12.706708 12.186897 30.454434
Si 23.294781 28.291340 5.384707
Si 27.121121 0.960277 14.801111
Si 20.969258 12.040494 12.210328
Si 14.036946 10.297575 7.644584
Si 16.251854 27.138921 27.808594
Si 0.492675 4.219712 13.879748
Si 6.583368 26.741921 14.197943
Si 18.179377 13.944445 26.086663
Si 18.808337 13.784362 20.398934
Si 14.400376 7.535174 28.841702
Si 2.649901 24.415097 15.785619
Si 29.500727 15.764273 9.496262
Si 22.687654 17.149578 11.398176
Si 8.466543 14.554521 16.425547
Si 26.694238 8.323959 12.604299
Si 4.214292 6.183284 14.584820
Si 6.965271 14.055942 9.699709
Si 17.105128 23.869298 22.283216
Si 18.015245 19.697713 11.868745
Si 15.546982 16.443846 5.578108
Si 25.006306 18.006684 24.516625
Si 18.834452 6.495241 19.688889
Si 18.910364 22.864308 14.708106
Si 19.417835 0.590413 19.091899
Si 22.157529 27.941855 2.434689
Si 5.085478 24.765015 9.677225
Si 1.131828 13.380874 23.193964
Si 20.749583 22.640836 17.247614
Si 11.434045 2.703013 21.883530
Si 17.882689 29.214338 29.463928
Si 24.582712 17.757916 13.545512
Si 24.522584 29.461998 14.784025
Si 27.476512 29.259285 24.389154
Si 15.485284 13.331670 6.064809
Si 22.309097 12.899749 9.451344
Si 5.317251 3.132303 22.751126
Si 23.551885 4.343690 11.654610
Si 17.092020 14.914307 10.159296
Si 15.216795 26.129461 9.335879
Si 5.641766 19.233266 17.502941
Si 10.032001 4.319798 28.909750
Si 10.483883 19.538323 13.139877
Si 18.010114 11.013786 12.688600
Si 13.847445 15.916964 27.776799
Si 6.252245 19.818015 12.234890
Si 15.938666 17.711896 10.457184
Si 22.689218 23.628151 21.476867
Si 30.693876 25.777482 11.213095
Si 14.187094 7.786263 2.716991
Si 7.892476 10.924966 28.259376
Si 6.385696 18.393713 22.525828
Si 18.647558 19.876310 14.642218
Si 12.163216 26.042164 9.398076
Si 14.317665 20.461659 1.469430
Si 27.502055 11.966321 21.189707
Si 18.179077 14.420627 15.675577
Si 8.789510 17.437207 24.491526
Si 3.053466 15.160123 30.106713
Si 6.724879 8.438195 24.050579
Si 18.540532 25.711814 15.063919
Si 22.637700 28.367072 8.334489
Si 27.331813 17.622899 20.658678
Si 7.380059 3.302350 18.266298
Si 26.829828 18.623221 4.952129
Si 5.825832 5.674116 8.026282
Si 23.014785 24.974407 5.628876
Si 30.149501 27.465708 28.459268
Si 13.195075 19.764414 27.579103
Si 2.304004 29.721270 27.709832
Si 2.337527 13.730554 15.063401
Si 18.643259 18.265674 7.686744
Si 8.086658 13.071480 22.385810
Si 15.205095 26.972227 23.555363
Si 0.348395 10.006295 29.175505
Si 6.777377 10.943816 9.457707
Si 0.530097 26.844154 1.332921
Si 6.901356 5.742042 22.662499
Si 27.107822 23.646360 9.133347
Si 30.494040 17.007633 30.151032
Si 21.058863 24.420429 30.421190
Si 25.885823 24.137504 6.428939
Si 8.615332 8.666315 9.982798
Si 21.730936 1.960302 12.304011
Si 26.499146 23.160079 23.791454
Si 29.805815 19.744415 1.260300
Si 2.349737 23.773655 25.850572
Si 13.692755 8.482423 20.572182
Si 3.320728 18.453066 18.121879
Si 30.072904 30.218698 23.870351
Si 16.184193 27.897914 13.936303
Si 18.460266 18.418668 25.604382
Si 25.237196 13.680156 3.393335
Si 20.220596 9.303160 20.743675
Si 28.996647 9.006912 14.447625
Si 20.274877 5.175530 9.681723
Si 14.135538 22.329512 22.511805
Si 15.455760 12.912491 11.685233
Si 27.513606 14.046041 5.391486
Si 30.053028 12.479553 27.722936
Si 18.469066 23.997546 29.011146
Si 3.296541 25.461145 1.756580
Si 15.559881 4.066878 18.687557
Si 24.813454 13.543342 26.074169
Si 14.180866 26.469600 20.988465
Si 7.109985 21.565218 25.425147
Si 10.841869 22.407809 6.749572
Si 4.141170 11.395050 11.836065
Si 21.565691 2.789877 4.092708
Si 0.466561 1.513020 17.981085
Si 24.603722 15.036502 23.418669
Si 25.257544 12.378335 9.507450
Si 4.502821 4.072378 16.978725
Si 20.213592 9.983640 23.518255
Si 14.862814 29.002985 26.129994
Si 22.325480 16.087487 21.741553
Si 27.629801 22.652599 20.877970
Si 1.343277 8.223263 10.932165
Si 3.015852 21.294169 5.625671
Si 25.640744 2.818813 19.060339
Si 26.061888 10.330295 29.948139
Si 15.195511 7.497881 14.073401
Si 19.569922 30.519286 15.987364
Si 22.868891 9.496842 1.777769
Si 4.315132 12.597799 22.100394
Si 28.806754 8.604408 24.992406
Si 2.319778 3.562858 25.947768
Si 26.746736 15.120399 8.283161
Si 15.661801 15.747650 30.345688
Si 28.107582 4.583988 19.311332
Si 14.505423 28.955749 8.179505
Si 15.998764 7.514771 5.295989
Si 0.671577 8.287855 21.197995
Si 10.544881 8.235223 5.225782
Si 29.418539 4.057162 8.363883
Si 7.057080 25.803533 7.718022
Si 18.010339 21.283363 20.845080
Si 1.135295 7.031320 17.706596
Si 18.135579 8.075789 13.194975
Si 24.205637 17.068121 8.509372
Si 7.663605 18.706956 19.595821
Si 23.169379 3.862716 17.456006
Si 22.579080 9.279643 12.003861
Si 26.224557 24.604222 12.142417
Si 27.632401 0.831297 17.751794
Si 2.131495 25.243524 8.932995
Si 7.231125 4.731029 4.587283
Si 13.742653 10.754472 18.422267
Si 19.398384 1.882575 1.813468
Si 3.084497 6.348608 9.229613
Si 5.963295 2.908454 6.682643
Si 18.385069 10.740373 26.076363
Si 18.378269 22.549103 6.737352
Si 11.655928 23.850628 23.527847
Si 1.320947 30.375592 11.786231
Si 1.347543 14.404475 25.856557
Si 5.802631 21.659808 9.762874
Si 4.827869 15.077113 13.735603
Si 24.698118 10.799271 17.299512
Si 29.249937 10.951664 16.654538
Si 26.866008 10.778876 24.154754
Si 1.886412 7.176779 29.468358
Si 15.138781 13.881274 16.145082
Si 17.920887 18.277373 4.784900
Si 24.997927 7.277485 7.994547
Si 2.070008 12.868688 10.244493
Si 16.632039 21.940927 17.914188
Si 8.028244 16.640317 5.192153
Si 15.582669 10.491421 21.735260
Si 20.715676 12.718094 15.182796
Si 10.989963 26.366052 1.540589
Si 20.778146 18.153155 21.232032
Si 4.285856 23.412633 3.801151
Si 28.854007 21.477171 25.382744
Si 3.996151 19.868810 28.974848
Si 25.399103 13.800220 18.196027
Si 8.066709 3.162824 26.516546
Si 23.332791 10.074321 21.260501
Si 29.166440 23.962247 2.225232
Si 3.220082 27.074923 22.266415
Si 25.468760 15.522857 28.181992
Si 4.431834 1.377455 25.127101
Si 11.110758 8.614697 8.293350
Si 4.728353 20.323863 23.849282
Si 15.233294 28.104082 1.991521
Si 19.972806 11.681235 5.834008
Si 15.785758 17.134581 18.775842
Si 9.009122 13.779752 2.526690
Si 18.408368 2.228591 7.969743
Si 6.954097 20.366737 28.280540
Si 24.165257 8.841313 24.257962
Si 16.790932 20.850671 3.505521
Si 21.631440 25.472887 8.440014
Si 12.118718 13.653757 2.872046
Si 6.026000 27.283115 20.994265
Si 28.638961 3.360016 28.008886
Si 11.710813 26.182688 28.583096
Si 12.956185 27.327113 3.813688
Si 8.960764 10.128497 22.398909
Si 30.486588 17.520803 14.082640
Si 9.925575 12.833190 7.241972
Si 12.023922 2.483701 0.740005
Si 23.645860 24.465227 16.040862
Si 20.609480 25.155300 19.567422
Si 13.761653 6.907375 26.043264
Si 11.946385 9.340811 29.492440
Si 7.207580 14.670805 25.265809
Si 21.742935 7.669595 25.340092
Si 26.309354 17.889589 17.843390
Si 11.386960 25.114173 13.931111
Si 4.562449 16.813031 27.860792
Si 7.555700 18.644259 7.323459
Si 10.041401 0.661745 2.226211
Si 26.769183 30.431953 2.368674
Si 9.020517 10.409704 19.087994
Si 6.180934 25.718277 24.572623
Si 27.743297 26.588043 5.832718
Si 10.191195 21.129760 22.026824
Si 14.038642 4.895485 10.741773
Si 23.333669 14.182678 15.961602
Si 13.808051 7.932035 11.738433
Si 10.253992 20.703977 2.986831
Si 10.767372 27.614902 15.439386
Si 30.204966 18.061071 21.289969
Si 3.877456 15.330090 10.731473
Si 14.162537 23.159879 19.606420
Si 30.384323 15.076133 5.672168
Si 16.683279 25.052537 17.403019
Si 3.076448 5.403595 19.471926
Si 25.113401 27.851692 28.048185
Si 2.661704 26.699336 13.882174
Si 0.832804 7.585127 2.124673
Si 11.043289 15.618614 12.127973
Si 25.970639 9.702019 19.531837
Si 24.537390 0.906904 21.060321
Si 30.026906 18.190977 5.803789
Si 2.512067 21.221148 18.819887
Si 4.373526 15.352689 25.355792
Si 4.333087 28.966043 14.135025
Si 22.030746 7.682903 9.228875
Si 15.830970 22.008225 12.086519
Si 28.236477 13.297271 14.896608
Si 23.096382 3.380606 0.581111
Si 11.303650 8.905126 26.300454
Si 6.442857 24.147739 26.913474
Si 4.904585 23.255975 19.561622
Si 5.120826 25.957468 5.134056
Si 3.530850 15.675577 19.532423
Si 15.466784 18.323094 26.202025
Si 16.333550 0.597992 6.216103
Si 4.522030 4.822508 3.117356
Si 16.083660 6.388776 20.875970
Si 27.599402 7.259091 20.702477
Si 5.154285 1.488481 12.608299
Si 15.152097 1.319458 24.514525
Si 8.471526 25.073939 28.547762
Si 15.981629 29.689111 16.794337
Si 3.115736 12.010122 29.738217
Si 13.606783 16.275239 20.629490
Si 21.360051 22.366711 25.858672
Si 3.190393 0.466527 30.143301
Si 8.039246 11.251193 1.354050
Si 19.084941 11.240453 18.588961
Si 19.318193 18.157784 1.976749
Si 19.470126 24.332732 24.103341
Si 14.030146 16.344031 2.883089
Si 14.289964 13.099281 25.424105
Si 29.637545 3.893030 5.227373
Si 18.908048 25.503086 5.391116
Si 20.559503 9.250508 27.908799
Si 23.182078 24.859011 12.811491
Si 16.872129 4.858407 3.680114
Si 1.473426 7.307841 13.813504
Si 15.561881 22.531004 5.503541
Si 28.579901 29.511773 12.925174
Si 25.218617 12.554732 14.947406
Si 19.297905 3.484817 29.324117
Si 14.993697 23.640168 1.560708
Si 17.505466 18.565049 21.384904
Si 21.215101 10.225031 7.955794
Si 10.669283 4.752355 6.904271
Si 21.181503 20.042916 10.836143
Si 25.571390 3.259828 13.715106
Si 24.950698 5.788586 15.757292
Si 20.273794 12.884888 30.506587
Si 6.659915 28.407870 9.085899
Si 27.086223 29.789915 21.494045
Si 8.337673 27.163865 11.452334
Si 27.807636 26.938521 11.092992
Si 4.442969 10.229089 24.553847
Si 22.590153 29.775031 23.128771
Si 9.657635 4.853266 24.853179
Si 5.982033 21.861581 1.944089
Si 6.655837 1.532263 20.579122
Si 28.429969 8.532131 10.110198
Si 8.421105 21.031764 5.484242
Si 29.477976 14.007557 30.592654
Si 9.440702 16.639596 18.639266
Si 29.321473 7.480497 7.247955
Si 28.024586 18.642059 25.386090
Si 1.055028 10.150796 23.773755
Si 5.905059 7.007087 20.165518
Si 23.311440 27.337997 16.550575
Si 25.338892 10.977563 12.019222
Si 17.481705 29.876912 3.318128
Si 29.772316 24.213237 5.251131
Si 20.932799 27.910737 14.943450
Si 23.107100 25.124571 25.555531
Si 3.785379 3.588307 30.415290
Si 18.242238 9.690956 4.248816
Si 1.288919 2.162354 9.427085
Si 16.981065 19.151909 30.169268
Si 10.353888 14.746914 20.896869
Si 28.651061 27.961688 17.741494
Si 30.150477 20.173274 12.420646
Si 17.029478 30.818354 20.695436
Si 5.881489 12.517065 13.709022
Si 23.773255 7.023441 13.178176
Si 0.933787 13.678410 2.745908
Si 20.230995 13.735554 3.653795
Si 2.092687 7.902966 6.891436
Si 9.612428 15.890873 0.292401
Si 4.713099 10.842273 27.713507
Si 0.905808 22.470806 7.617377
Si 11.379747 14.422326 28.558964
Si 1.790609 19.417228 3.561018
Si 4.680104 15.646578 22.459507
Si 24.807613 21.371950 19.948507
Si 20.494685 18.745755 28.173480
Si 18.864356 5.093770 12.149762
Si 8.001132 10.759872 12.937885
Si 12.462976 2.404525 24.531113
Si 1.456152 4.320248 28.810454
Si 24.571823 18.754054 21.670838
Si 19.169538 27.847393 1.993861
Si 13.613959 1.045688 10.005302
Si 3.204323 4.119854 12.510341
Si 4.102194 14.423121 2.559556
Si 14.645018 2.643115 4.388295
Si 29.872512 10.895267 19.478925
Si 0.619239 25.529592 21.652669
Si 4.620294 19.894249 7.538949
Si 21.018264 24.365931 3.467582
Si 26.312098 14.557468 20.989341
Si 12.092419 23.564163 17.303612
Si 2.007600 26.003866 5.706673
Si 27.687699 15.422287 16.898928
Si 11.074160 8.008042 21.737336
Si 11.768665 11.607959 24.923653
Si 25.605664 6.433567 22.731851
Si 22.026636 30.418786 0.903994
Si 7.310819 28.096019 23.431520
Si 8.240602 4.222872 11.418846
Si 20.934667 22.751595 12.055921
Si 14.291632 18.209276 8.007212
Si 21.524044 10.521482 17.122619
Si 8.189477 25.300627 19.510152
Si 17.702446 2.800013 23.104684
Si 10.954064 16.253654 5.581188
Si 13.275672 20.409088 6.065399
Si 28.541472 21.079702 16.372584
Si 12.886788 29.865312 16.110359
Si 16.376269 19.346008 16.347237
Si 21.941186 14.967354 7.347009
Si 16.970954 24.937209 11.010937
Si 2.908862 29.142311 24.359644
Si 19.341231 23.564063 9.394156
Si 15.443486 10.637677 26.620841
Si 17.193416 25.757876 1.084067
Si 4.996901 11.659136 2.212712
Si 16.290182 4.954287 23.683029
Si 2.016590 9.738273 16.262453
Si 15.661377 11.311950 29.549125
Si 17.490404 13.715755 29.168340
Si 19.151238 4.122966 5.680374
Si 8.828283 6.028600 8.966309
Si 11.443737 28.969387 27.027079
Si 30.076082 4.297731 16.633869
Si 21.578042 27.684099 12.199815
Si 28.126981 3.854177 12.092919
Si 16.158655 28.684386 19.272381
Si 23.938278 29.809740 11.485205
Si 4.549949 23.811153 29.624022
Si 0.856135 22.985851 23.709806
Si 11.408346 12.333310 18.961646
Si 10.103698 27.642801 24.727817
Si 20.287122 1.733663 24.310987
Si 16.510828 1.709967 10.090069
Si 28.241977 10.915066 5.692144
Si 25.533985 1.394845 25.814073
Si 22.089322 17.122119 15.256093
Si 22.398509 1.492331 15.461485
Si 28.231777 18.525663 10.533381
Si 12.371108 13.409567 5.764461
Si 11.175025 13.035460 15.764781
Si 29.515926 2.974992 24.996506
Si 5.398145 24.575523 12.624598
Si 6.736751 22.229662 17.095326
Si 12.227914 29.215938 6.092528
Si 6.016501 7.382476 5.726992
Si 22.745695 15.634578 3.512850
Si 27.253616 8.660686 27.709098
Si 23.833552 4.644855 3.293749
Si 20.650679 8.055690 3.393245
Ca 8.668687 7.003211 19.018612
Ca 19.769214 9.234623 0.886134
Ca 7.559669 21.623240 20.001005
Ca 29.809515 6.642346 26.972027
Ca 21.620867 27.522845 28.431123
Ca 22.757695 17.173217 18.572361
Ca 29.591023 1.343377 0.736510
Ca 21.391860 17.849927 6.503116
Ca 28.000087 26.230957 20.569182
Ca 25.975989 22.069424 14.817592
Ca 11.205454 6.481712 11.009962
Ca 12.192415 22.676898 0.978989
Ca 1.098195 19.251016 9.088367
Ca 22.675605 28.582001 19.581130
Ca 5.980657 25.197464 17.023126
Ca 28.840714 16.634881 27.301241
Ca 8.060599 18.778553 1.784559
Ca 7.567301 1.285820 11.129290
Ca 29.758417 2.019740 20.929668
Ca 15.689076 21.603741 28.240077
Ca 12.109916 6.212152 1.091005
Ca 25.620170 28.524280 19.028727
Ca 5.535410 14.951905 6.994242
Ca 1.919636 29.569714 6.239010
Ca 15.458285 13.366868 19.456126
Ca 12.180916 29.348833 30.297295
Ca 2.993047 12.683517 18.827746
Ca 22.145219 2.003130 9.317549
Ca 8.412845 14.190436 13.235874
Ca 15.387877 1.044880 1.275582
Ca 22.466389 13.344585 19.533207
Ca 13.564509 1.556878 27.891034
Ca 14.937206 4.511731 1.135635
Ca 23.703557 8.262601 28.372572
Ca 10.770895 23.850559 20.365809
Ca 13.502263 24.267135 7.386886
Ca 2.714092 28.801655 2.867256
Ca 24.289734 0.814220 3.404395
Ca 26.109124 5.346914 6.125623
Ca 12.550701 23.845652 4.103257
Ca 25.602303 20.343121 8.546359
Ca 16.655438 9.274311 18.743355
Ca 3.987984 26.995397 26.993846
Ca 18.399562 0.497991 12.716783
Ca 23.201650 22.473175 9.740170
Ca 9.064425 24.729452 16.166328
Ca 29.357210 15.794545 23.600554
Ca 10.733021 16.709406 14.993973
Ca 26.031504 28.792338 8.858988
Ca 20.033342 16.021532 9.360185
Ca 30.264396 10.700474 8.625837
Ca 23.409169 4.095147 24.243036
Ca 22.090922 26.326553 22.220516
Ca 9.161341 23.828247 9.124713
Ca 21.663339 13.001183 22.752395
Ca 18.329253 8.217114 8.775682
Ca 28.731809 30.210376 27.134539
Ca 9.481428 24.157685 25.404728
Ca 1.766840 28.607262 16.922527
Ca 20.723123 3.869453 26.491106
Ca 18.180782 23.614188 3.513244
Ca 9.546550 12.844189 10.265492
Ca 9.188239 16.082080 8.352404
Ca 17.448058 0.619060 26.396796
Ca 0.734016 14.037076 12.646350
Ca 7.768256 24.162465 4.606849
Ca 26.671639 2.868496 3.742651
Ca 26.701038 4.387736 25.685079
Ca 12.138717 2.314488 18.958946
Ca 10.852468 3.054589 9.925445
Ca 10.830269 9.424565 2.186493
Ca 22.952387 11.797631 5.194023
Ca 18.375269 14.747614 6.716773
Ca 10.667376 17.864090 27.304814
Ca 23.020285 17.272713 27.329613
Ca 15.805471 23.762055 25.528385
Ca 7.841688 9.218423 3.541409
Ca 2.493321 1.367826 15.308391
Ca 9.543061 20.666278 9.814210
Ca 20.720803 0.555210 27.368541
Ca 19.538455 28.016317 21.088431
Ca 12.464504 18.252474 11.016662
Ca 15.261747 26.425885 5.898368
Ca 1.355087 16.044799 16.964418
Ca 3.563501 18.129417 12.002087
Ca 6.702948 7.456701 16.470120
Ca 30.065182 24.110206 18.239355
Ca 3.462582 7.894046 22.164019
Ca 28.233817 20.381583 7.636487
Ca 4.757691 9.389237 14.117839
Ca 21.342951 8.220693 14.850609
Ca 16.247354 16.122959 13.412667
Ca 26.546645 3.207971 22.702661
Ca 11.486350 8.489323 17.408579
Ca 10.615282 26.366243 6.071534
Ca 2.716272 16.582241 7.727523
Ca 28.572764 22.225116 29.484727
Ca 27.394310 18.913852 13.648577
Ca 12.681535 5.615308 4.555782
Ca 20.475570 21.004564 4.640257
Ca 14.929606 16.267853 23.439968
Ca 12.523102 19.612620 20.717976
Ca 21.712137 21.021764 20.240095
Ca 9.219323 1.123025 24.101342
Ca 13.322570 9.083109 23.904049
Ca 8.202154 9.974003 6.918105
Ca 27.921790 6.695874 4.002741
Ca 27.642001 7.896956 17.498304
Ca 1.833317 10.792771 4.742741
Ca 18.866150 21.162358 30.480188
Ca 28.990213 22.113504 10.862688
Ca 1.556578 17.700796 24.822613
Ca 11.514242 18.980245 30.545585
Ca 20.190419 20.835669 23.098125
Ca 1.899854 10.527868 12.971286
Ca 8.677465 22.781794 13.144177
Ca 4.050463 18.390614 1.532011
Ca 6.951671 5.425204 0.727575
Ca 4.783620 1.831387 3.561978
Ca 24.262635 24.765615 28.875752
Ca 25.984367 1.846947 29.606623
Ca 27.529873 16.160607 12.828859
Ca 29.491327 10.389287 2.361836
Ca 18.395214 8.332159 16.629742
Ca 10.636499 26.954870 21.851689
Ca 18.142826 20.844087 26.972090
Ca 9.659853 1.507679 17.029128
Ca 5.488302 22.352511 14.463325
Ca 3.055152 30.463292 20.681490
Ca 20.270194 20.487185 7.841608
Ca 10.875268 10.234993 11.880528
Ca 19.420428 3.861446 18.504264
Ca 16.872029 5.416105 8.505302
Ca 16.309651 11.197355 15.909367
Ca 3.916986 23.569493 22.470980
Ca 13.463108 2.965662 7.262629
Ca 23.119935 11.691685 29.309739
Ca 5.919925 5.755131 27.754796
Ca 6.952124 29.632422 26.555444
Ca 12.632224 22.859800 27.272918
Ca 18.661358 15.958665 23.097281
Ca 8.683995 17.573701 11.136457
Ca 21.418684 0.717606 6.608286
Ca 26.102854 21.921433 4.360482
Ca 3.492191 18.609960 15.014203
Ca 29.137641 23.470067 13.838650
Ca 12.174367 29.810619 22.587903
Ca 7.983853 27.994887 17.300512
Ca 2.539942 26.186306 19.294549
Ca 13.574712 17.546517 13.964320
Ca 13.439454 13.451753 22.239187
Ca 10.919387 0.549090 8.090394
Ca 29.422330 18.005884 17.895288
Ca 14.733447 23.360902 15.088741
Ca 8.800190 29.242537 5.254751
Ca 17.562585 2.701242 15.915655
Ca 21.910359 21.491478 29.141941
Ca 2.882178 3.734051 6.865744
Ca 21.546043 18.518264 25.008405
Ca 13.666957 26.285955 15.755073
Ca 23.318573 4.677534 7.758331
Ca 14.333183 2.607508 15.583050
Ca 3.438362 10.305808 8.519035
Ca 30.105673 14.607871 19.836815
Ca 24.803114 25.912570 9.663256
Ca 13.684539 6.762680 8.209052
Ca 9.435713 22.958166 1.674081
Ca 30.165083 5.956626 23.082843
Ca 13.134478 13.827550 13.602359
Ca 21.274714 27.412189 25.091621
Ca 8.696264 7.738162 29.823414
Ca 8.873567 20.358390 15.456385
Ca 6.389316 13.151377 19.251034
Ca 8.455374 3.694331 14.239694
Ca 6.805157 25.259695 1.391460
Ca 3.867529 30.306085 9.484351
Ca 4.900504 13.707639 16.957537
Ca 24.735316 15.691576 5.793870
Ca 5.510771 2.268890 28.243577
Ca 29.349533 26.542344 8.498112
Ca 28.180660 8.012339 0.964275
Ca 12.046921 15.545182 8.692994
Ca 16.249054 20.473886 24.084042
Ca 9.486293 4.710133 20.934368
Ca 21.097809 6.786320 29.785532
Ca 22.016724 11.606338 26.113362
Ca 14.646232 2.496328 21.569053
Ca 23.927948 18.739955 5.098647
Ca 16.131059 20.998765 8.502972
Ca 12.878788 18.867950 23.612161
Ca 1.837067 21.650228 0.427445
Ca 17.951886 27.808394 10.752372
Ca 12.825890 15.803272 17.416007
Ca 11.150668 26.880971 18.635376
Ca 9.259732 0.905894 28.611062
Ca 19.858199 15.589964 12.700413
Ca 23.888450 22.308713 1.059408
Ca 17.717320 6.602259 28.767439
Ca 21.666494 6.755403 17.839923
Ca 19.586921 4.901395 1.819168
Ca 26.731037 29.362229 5.825040
Ca 10.349988 20.608680 25.218397
Ca 20.065391 5.343958 22.687859
Ca 29.401896 28.870503 4.093127
Ca 24.827821 28.111241 0.760408
Ca 11.166656 2.153994 4.827738
Ca 22.435408 20.633879 14.544922
Ca 30.476888 5.409785 10.735773
Ca 7.481282 17.583201 14.381128
Ca 30.547817 19.569672 27.697746
Ca 27.610102 27.813294 29.949609
Ca 4.758220 11.057218 5.744126
Ca 20.474686 19.292833 17.733195
Ca 5.686076 28.716678 1.833878
Ca 28.328373 25.942968 23.927748
Ca 12.875988 20.886969 14.785912
Ca 5.452263 20.265694 4.095367
Ca 6.011871 1.214252 16.345050
Ca 26.594542 24.632820 17.838791
Ca 7.503132 7.246252 13.349769
Ca 25.744901 10.304850 3.363743
Ca 7.216543 11.487843 16.472445
Ca 16.594440 12.890528 23.326568
Ca 13.227174 10.026901 4.379166
Ca 3.365426 27.436009 10.807670
Ca 25.230756 27.024024 3.700749
Ca 24.716179 17.371666 0.910870
Ca 23.954621 21.214548 24.805974
Ca 20.127361 29.782516 9.393468
Ca 26.336953 4.286510 9.729483
Ca 26.442276 6.066177 29.108409
Ca 7.355752 23.345188 22.399985
Ca 10.320483 21.153112 18.548190
Ca 26.813134 1.175223 9.791431
Ca 21.327852 15.773073 30.356693
Ca 11.275226 1.823758 12.934069
Ca 12.896287 5.425254 23.363471
Ca 2.837327 21.581042 12.691295
Ca 16.856022 8.478872 24.435996
Ca 21.986626 2.818098 20.316592
Ca 17.988985 11.933025 8.690094
Ca 26.667040 18.561862 28.770256
Ca 30.371092 28.909750 20.612680
Ca 28.938425 11.929232 11.696157
Ca 5.940191 10.442710 20.538488
Ca 3.924894 8.440114 2.866726
Ca 13.049881 10.446585 14.928706
Ca 24.981007 26.636441 24.192638
Ca 4.755036 3.365770 9.816787
Ca 14.081022 29.280373 12.812031
Ca 17.878898 14.973113 2.401297
Ca 26.654640 24.866811 26.634441
P 4.821208 8.251642 29.548325
P 26.231957 24.820913 1.709812
P 9.467364 12.948985 26.544844
P 25.071003 20.560282 12.308311
P 8.601838 27.051924 3.276860
P 7.669377 0.842005 8.226112
P 18.604860 28.068184 6.880556
P 16.624487 3.502794 28.434587
P 13.579733 21.730890 10.286594
P 24.912309 7.316959 2.290599
P 8.598298 7.407605 26.252856
P 7.715461 12.954015 5.011489
P 17.832891 28.564064 23.497966
P 12.485403 4.307029 27.077023
P 11.503771 4.949868 14.019048
P 4.715552 10.212594 17.663798
P 27.876191 4.434314 1.286169
P 29.836102 30.336311 7.989692
P 23.670586 4.593091 27.850490
P 20.965566 14.961105 25.385191
P 5.176734 16.592140 4.543099
P 25.210776 2.185542 7.145234
P 7.108797 27.830493 28.944549
P 25.688678 10.227093 7.339718
P 24.840312 25.786875 20.935067
P 10.368288 5.173754 16.770733
P 18.713056 25.874071 26.748436
P 25.524285 21.597541 28.155980
P 5.089328 29.070444 5.299029
P 27.555504 13.189975 25.774275
P 8.892906 29.945409 14.510123
P 16.309551 8.591358 0.745308
P 9.131618 30.233579 20.075165
P 1.674473 21.547543 15.865069
P 24.595940 20.184228 17.241696
P 1.390575 1.600416 4.430674
P 29.729518 24.769815 27.125921
P 2.503000 3.555199 21.880030
P 11.254552 15.736874 23.724157
P 9.251896 5.960115 3.375761
P 23.006285 21.291553 6.538540
P 7.479582 2.210075 1.202268
P 10.827760 28.425227 11.245667
P 9.683088 21.561691 28.577145
P 21.971585 19.578706 2.044268
P 16.054962 11.741233 3.368886
P 19.629519 5.209843 15.298292
P 23.127880 6.053179 21.179458
P 5.039872 28.459573 18.462412
P 17.819045 6.151446 25.384525
P 9.536221 9.519941 15.238594
P 14.882179 6.565110 17.060730
P 20.532883 6.848478 6.173734
P 3.183273 6.421785 25.455388
P 18.589861 16.098660 18.162178
P 13.137678 12.312010 9.966764
O 23.712798 13.129841 9.610461
O 11.436641 15.008895 22.118588
O 10.148048 20.982023 13.672197
O 18.683857 28.001386 8.379887
O 17.325729 28.175485 28.741695
O 5.056084 27.600204 5.027610
O 26.948228 11.431845 22.532104
O 19.879009 1.689703 8.196624
O 2.402003 5.169185 8.062809
O 7.603963 21.820417 9.205399
O 17.913988 9.462434 12.323210
O 20.463586 3.173054 5.416705
O 12.400407 7.800240 25.915769
O 14.555421 28.061584 24.471727
O 9.442275 13.409467 15.800872
O 18.972262 1.037782 14.811712
O 27.612502 28.658060 11.750033
O 23.889964 0.545292 25.860319
O 3.568631 16.727866 10.290223
O 11.860853 10.662297 30.343803
O 15.021754 24.935575 17.205166
O 5.810888 28.135036 13.899134
O 19.830111 8.328289 28.796255
O 21.915124 13.845767 15.792064
O 10.567980 23.336472 17.674597
O 4.624226 19.899909 13.010383
O 30.079504 18.965446 7.165215
O 25.195628 2.474823 20.522434
O 5.322603 23.967448 28.534664
O 14.785112 18.486065 24.781115
O 9.681650 26.770962 16.510722
O 7.344309 9.617776 9.421812
O 27.514302 12.496677 5.287881
O 10.120789 16.528085 23.801795
O 29.892286 18.183723 1.120958
O 0.470691 28.055784 2.305798
O 21.019377 19.198706 22.435426
O 6.418535 2.374416 21.763735
O 17.481377 2.539676 9.083637
O 9.821259 0.988529 14.585020
O 11.443745 10.062500 25.231197
O 23.143780 16.030063 7.691794
O 10.631690 24.924636 22.581434
O 26.311453 1.460050 18.776639
O 12.650937 11.948577 19.327206
O 5.706883 6.969159 6.997359
O 27.455981 2.643559 11.483775
O 0.860568 4.782000 4.893975
O 14.472324 27.572004 3.294999
O 3.879532 26.721899 2.568039
O 8.044443 5.039145 12.923318
O 5.968013 4.563789 23.186578
O 17.639499 30.475088 10.315790
O 19.764214 5.604257 5.743912
O 20.196445 1.145667 11.791336
O 16.761833 12.294511 29.199039
O 8.221513 19.859310 6.587498
O 27.854499 14.710435 15.613644
O 27.056024 27.087508 9.716468
O 14.388852 7.656651 13.460461
O 24.585515 25.312009 26.665982
O 26.720968 26.136453 12.368978
O 26.003766 7.618147 3.225692
O 7.496312 24.985706 24.070943
O 18.535363 19.858210 24.771115
O 11.004014 14.775440 24.699029
O 20.161378 23.112294 13.207257
O 2.798739 6.873637 14.512723
O 29.463028 15.733374 30.059505
O 25.760435 16.303676 8.591126
O 28.520433 29.794123 8.671819
O 2.072429 6.789402 18.884187
O 28.570737 12.656137 26.722699
O 17.112319 3.675444 18.431267
O 2.327197 3.764800 27.590903
O 20.264894 28.054284 11.426846
O 24.014469 24.235510 6.270328
O 19.632250 14.800892 26.223661
O 16.950487 8.896218 5.208354
O 25.916969 7.951864 27.364812
O 6.286930 25.143300 8.660776
O 24.227237 21.482446 13.108879
O 11.451774 9.617889 28.008124
O 6.123559 16.423594 22.531557
O 8.691454 1.439543 1.547478
O 25.978769 21.146024 2.361710
O 13.419417 30.545526 14.702954
O 25.929588 24.659774 3.379047
O 13.213075 17.452306 8.872597
O 21.618845 21.972142 6.488697
O 7.687135 25.974644 3.255856
O 14.784048 23.857936 5.397120
O 4.832159 23.393792 9.432698
O 19.460954 29.172721 6.557067
O 8.732055 8.268476 11.403288
O 26.660140 24.024545 10.676175
O 17.143518 28.188379 6.429714
O 8.597252 13.231909 6.008360
O 22.185618 22.528704 22.300613
O 23.243276 19.517124 17.595200
O 21.747135 25.728177 26.498146
O 12.287211 3.023630 23.243376
O 17.594555 14.207423 27.353045
O 0.536813 17.800215 19.787231
O 22.727398 28.868953 4.106477
O 7.886586 26.603142 28.589463
O 18.635990 11.013988 5.591516
O 14.801611 17.233615 6.793180
O 12.873691 10.476846 17.097755
O 5.742218 21.183872 16.402704
O 8.392013 16.421439 29.233802
O 27.287515 22.065323 9.065519
O 14.090640 22.129720 20.894369
O 4.369520 10.596965 26.032792
O 15.954408 27.129648 1.146098
O 13.179576 17.722795 2.615696
O 25.861272 1.386015 1.942503
O 11.172109 24.760787 9.872292
O 6.454048 7.058425 23.636393
O 2.347748 4.301194 20.636040
O 10.557311 17.806349 17.906201
O 12.026331 8.473866 20.460714
O 29.963708 23.119981 6.427164
O 15.525984 25.528832 7.995958
O 7.329073 8.499468 5.698208
O 12.924986 1.386745 30.204899
O 27.684060 13.620858 0.626542
O 11.243263 13.293532 19.991205
O 7.770180 18.586791 28.398631
O 2.532949 9.340679 6.534590
O 11.310250 30.053105 28.108182
O 28.951749 27.696199 16.216555
O 8.587648 9.831079 1.448572
O 7.086222 26.131971 20.768175
O 29.435129 5.592208 8.226523
O 25.932869 29.066144 2.439353
O 24.563923 6.206313 21.587542
O 12.108957 28.583788 15.815510
O 14.565449 21.497156 5.818005
O 27.617229 13.308132 21.014644
O 20.937367 25.818473 29.742417
O 8.249180 25.662570 10.659056
O 18.702156 18.063082 3.448173
O 13.580260 8.576049 29.357733
O 9.933355 2.516560 22.235016
O 5.077378 20.740375 8.768521
O 12.712460 25.969930 4.840441
O 14.193436 10.558580 6.349478
O 3.881962 20.197821 25.492400
O 7.567419 11.562629 29.821215
O 25.162674 24.316214 0.759387
O 1.240903 13.860506 24.255795
O 7.151267 29.916482 8.813407
O 6.452873 11.148057 27.494107
O 19.238335 8.403726 14.371229
O 8.503501 8.447310 15.349743
O 26.705971 3.802554 19.418170
O 16.494444 21.698437 25.981567
O 26.252256 13.503263 26.352052
O 5.415255 7.191174 14.460325
O 18.031182 15.256550 11.267082
O 30.188346 24.525029 22.841400
O 5.458874 0.996041 11.228307
O 1.370489 9.225814 10.039354
O 17.431107 22.544503 21.347151
O 22.807085 6.554080 19.993985
O 4.300819 6.712513 26.447548
O 18.639411 15.643058 16.554735
O 4.234922 16.631039 26.348452
O 1.958442 17.545802 13.752853
O 3.715702 9.906966 12.192215
O 21.488351 14.794728 3.742426
O 1.645505 25.915769 7.343218
O 1.429173 28.225078 28.261876
O 16.450305 11.890687 12.064795
O 2.174204 7.010421 10.342789
O 19.083672 17.315272 24.949929
O 25.496486 29.735718 20.980266
O 12.305611 5.151875 6.972913
O 10.947173 8.882818 15.059223
O 18.873809 5.368453 26.173780
O 4.375124 30.613193 13.342209
O 17.123819 21.026064 11.673836
O 27.540275 1.162649 21.485662
O 13.895606 6.294577 2.464196
O 21.645739 27.102222 8.539440
O 15.653333 25.843342 24.506501
O 20.131499 22.909689 10.650076
O 16.802032 27.509106 23.386170
O 21.074862 10.690375 6.480202
O 18.855850 14.254433 4.299099
O 9.168941 20.369988 3.968119
O 22.532204 23.591762 16.755434
O 19.166238 25.477687 20.172298
O 25.835773 1.945633 27.214018
O 7.146256 13.804351 16.838230
O 7.981643 17.297912 6.515561
O 22.261515 8.598148 10.655076
O 29.806615 16.499144 13.099079
O 12.162069 16.131369 12.613552
O 7.744802 25.550884 18.184677
O 2.459282 28.119782 21.372450
O 23.175463 8.660646 25.144056
O 10.956577 19.559271 2.940178
O 4.241651 12.006623 20.782874
O 19.234835 11.767032 11.998623
O 23.641360 30.540086 15.266893
O 17.951286 19.596721 8.084658
O 14.718213 15.449406 28.912805
O 26.119761 29.851113 15.012903
O 5.258521 24.689818 4.134356
O 25.771778 11.312672 8.171969
O 11.411057 12.735063 17.333943
O 16.693436 2.246381 11.860128