1960
Ternary SiO2-CaO-P2O5 NPT-MC 15000steps E=-31842.9eV Box=31.999A
Si 7.149516 17.245317 29.350586
Si 16.259801 3.561477 12.729852
Si 2.354133 20.685216 26.418507
Si 17.226144 25.745271 20.592626
Si 30.286546 21.377823 21.110306
Si 2.347020 13.561887 7.213281
Si 2.158590 5.810441 4.643121
Si 11.287190 23.684219 11.221714
Si 29.517575 27.075730 14.896181
Si 26.330495 13.606757 30.714671
Si 15.740364 8.978789 9.690503
Si 11.762157 18.569998 17.246501
Si 12.228749 18.223746 3.283139
Si 26.808147 19.806448 2.008014
Si 14.222532 24.825358 28.587504
Si 23.712356 29.174742 25.938215
Si 12.755410 12.125439 30.405339
Si 23.388385 28.299360 5.487447
Si 27.172101 1.084523 14.809519
Si 20.969190 12.040454 12.210289
Si 14.205495 10.383000 7.737102
Si 16.251801 27.138833 27.808504
Si 0.574838 4.133768 13.809325
Si 6.486531 26.674454 14.252813
Si 18.170276 13.984486 26.006801
Si 18.881747 13.821557 20.406414
Si 14.434579 7.553437 28.768009
Si 2.649892 24.415018 15.785568
Si 29.543244 15.800670 9.557148
Si 22.580353 17.127997 11.459650
Si 8.531476 14.587137 16.448114
Si 26.580506 8.202795 12.623902
Si 4.214279 6.183264 14.584773
Si 6.887019 14.030215 9.777005
Si 17.105073 23.869221 22.283143
Si 18.015186 19.697649 11.868707
Si 15.658503 16.584441 5.554836
Si 25.109112 18.210477 24.552238
Si 18.796695 6.384648 19.720965
Si 18.867612 22.799060 14.737091
Si 19.425778 0.568742 19.131803
Si 22.076468 27.773388 2.446301
Si 5.085461 24.764935 9.677194
Si 1.131824 13.380831 23.193889
Si 20.749516 22.640763 17.247558
Si 11.398893 2.776332 21.847879
Si 17.772493 29.312745 29.395863
Si 24.458137 17.694130 13.551781
Si 24.522504 29.461903 14.783977
Si 27.476423 29.259190 24.389075
Si 15.485234 13.331627 6.064789
Si 22.332246 12.821432 9.380343
Si 5.369548 2.874577 22.827377
Si 23.576399 4.159702 11.559764
Si 16.904438 14.920905 10.125386
Si 15.216745 26.129376 9.335848
Si 5.641747 19.233204 17.502884
Si 9.961521 4.233892 28.893148
Si 10.441225 19.580272 13.136213
Si 18.010055 11.013751 12.688559
Si 13.847400 15.916913 27.776709
Si 6.006617 19.544441 12.417260
Si 15.790523 17.875317 10.330881
Si 22.601789 23.675846 21.588739
Si 30.693776 25.777398 11.213059
Si 14.187047 7.786238 2.716982
Si 7.892451 10.924930 28.259284
Si 6.145868 18.479013 22.528475
Si 18.816812 19.954775 14.772297
Si 12.300549 26.079027 9.523971
Si 14.241961 20.472181 1.320257
Si 27.463189 11.901523 21.132020
Si 18.179018 14.420580 15.675526
Si 8.790509 17.421004 24.485113
Si 3.189776 15.078370 30.066762
Si 6.713005 8.329874 23.939461
Si 18.551570 25.715452 15.073744
Si 22.637626 28.366980 8.334461
Si 27.313726 17.487792 20.528477
Si 7.364310 3.331356 18.288370
Si 26.759134 18.581857 4.910543
Si 5.825813 5.674097 8.026256
Si 22.923506 24.909843 5.572959
Si 30.149403 27.465619 28.459176
Si 13.139964 19.780983 27.589978
Si 2.430025 29.605726 27.600087
Si 2.338964 13.831039 15.210396
Si 18.643198 18.265614 7.686719
Si 8.052747 13.020296 22.376121
Si 15.213236 26.877063 23.470792
Si 0.117083 10.088421 29.281067
Si 6.836711 11.001950 9.296741
Si 0.544363 26.916379 1.359054
Si 6.759613 5.797228 22.577927
Si 27.107734 23.646283 9.133317
Si 30.493941 17.007578 30.150934
Si 21.128974 24.226969 30.391175
Si 25.945348 24.109922 6.315279
Si 8.555700 8.760988 9.841625
Si 22.024854 1.839186 12.060988
Si 26.585115 23.154447 23.745150
Si 29.805718 19.744351 1.260296
Si 2.178954 23.963560 25.769949
Si 13.653736 8.454387 20.528005
Si 3.205896 18.560632 18.059383
Si 29.981068 30.071042 24.057701
Si 16.090113 27.932310 13.915328
Si 18.460206 18.418608 25.604299
Si 25.221135 13.951060 3.517266
Si 20.208913 9.309591 20.664083
Si 28.896073 8.890427 14.450326
Si 20.274811 5.175513 9.681691
Si 13.951495 22.278756 22.459888
Si 15.421134 12.984762 11.609348
Si 27.513517 14.045996 5.391468
Si 30.115385 12.566203 27.774976
Si 18.551419 24.039520 29.141114
Si 3.219758 25.489099 1.738003
Si 15.575999 3.878148 18.696382
Si 24.813374 13.543298 26.074085
Si 14.069625 26.486843 20.914034
Si 7.109962 21.565148 25.425065
Si 11.078256 22.388109 6.635029
Si 4.104447 11.449618 11.921172
Si 21.565621 2.789868 4.092695
Si 0.466560 1.513015 17.981027
Si 24.698709 14.980368 23.263407
Si 25.257462 12.378295 9.507419
Si 4.557697 4.092553 17.168103
Si 20.213526 9.983608 23.518179
Si 14.892308 28.887843 26.051110
Si 22.387675 16.111470 21.856438
Si 27.428604 22.373833 20.722441
Si 1.161508 8.044161 10.757400
Si 2.895076 21.260368 5.559482
Si 25.806924 2.836581 19.149115
Si 26.087560 10.383010 30.040111
Si 15.195462 7.497856 14.073355
Si 19.897495 30.498955 16.030100
Si 22.713969 9.544454 1.901291
Si 4.315118 12.597758 22.100322
Si 28.874092 8.625520 24.970816
Si 2.308729 3.534015 26.013812
Si 26.746650 15.120350 8.283134
Si 15.643294 15.790372 30.440342
Si 28.107491 4.583973 19.311269
Si 14.474342 28.947510 8.104605
Si 16.024605 7.566080 5.396831
Si 0.525693 8.229318 21.382093
Si 10.515627 8.010722 5.051497
Si 29.420428 4.037280 8.355093
Si 6.978865 25.887640 7.684964
Si 18.098179 21.291523 20.677809
Si 1.135291 7.031298 17.706538
Si 18.135520 8.075763 13.194932
Si 24.222560 17.106528 8.436439
Si 7.806906 18.748381 19.393484
Si 23.169303 3.862704 17.455949
Si 22.763165 9.454765 11.945130
Si 26.235935 24.591054 12.154644
Si 27.793883 0.820889 17.864855
Si 2.137965 25.111425 8.938369
Si 7.106738 4.696298 4.485586
Si 13.742609 10.754437 18.422208
Si 19.507753 2.012738 1.798383
Si 3.072150 6.257923 9.229567
Si 5.963276 2.908444 6.682622
Si 18.334124 10.746186 26.031402
Si 18.332573 22.556414 6.632002
Si 11.655890 23.850550 23.527770
Si 1.488249 30.246118 11.753567
Si 1.311232 14.390197 25.852147
Si 5.802612 21.659738 9.762842
Si 4.817267 15.038825 13.761092
Si 24.606468 10.696370 17.380527
Si 29.283060 10.963411 16.615024
Si 26.806263 10.722101 24.099115
Si 1.886406 7.176756 29.468263
Si 15.091679 13.931475 16.224200
Si 17.920829 18.277314 4.784884
Si 24.969662 7.238275 7.874190
Si 2.130500 12.786431 10.126764
Si 16.631985 21.940856 17.914129
Si 8.028218 16.640263 5.192136
Si 15.582618 10.491386 21.735189
Si 20.715609 12.718053 15.182747
Si 10.990678 26.407138 1.475400
Si 20.767597 18.182591 21.244992
Si 4.080599 23.326638 3.759648
Si 28.853914 21.477102 25.382662
Si 3.930874 19.843824 28.988414
Si 25.384930 13.814850 18.195498
Si 8.166933 3.125277 26.525654
Si 23.332715 10.074288 21.260432
Si 29.174756 23.992279 1.770646
Si 3.064402 27.055289 22.327939
Si 25.653671 15.554108 28.119145
Si 4.335847 1.372645 25.220105
Si 11.110722 8.614669 8.293323
Si 4.728338 20.323797 23.849204
Si 15.258217 28.288071 2.077266
Si 19.912675 11.760979 5.786564
Si 15.868856 17.147673 18.886608
Si 9.009092 13.779707 2.526681
Si 18.505302 2.039320 7.999263
Si 6.954074 20.366671 28.280448
Si 24.251328 8.837216 24.228880
Si 16.814100 20.819318 3.634812
Si 21.631370 25.472804 8.439987
Si 12.012155 13.736795 2.995789
Si 6.025981 27.283026 20.994197
Si 28.638868 3.360005 28.008795
Si 11.717170 26.309477 28.336694
Si 12.956143 27.327025 3.813676
Si 9.022118 10.137311 22.432156
Si 30.486489 17.520746 14.082594
Si 9.828551 12.831605 7.116945
Si 11.993240 2.528258 0.803050
Si 23.645783 24.465148 16.040810
Si 20.659076 24.977142 19.251883
Si 13.761608 6.907353 26.043180
Si 11.946346 9.340780 29.492345
Si 7.207557 14.670757 25.265727
Si 21.615192 7.783351 25.311431
Si 26.177998 17.907700 17.978361
Si 11.173208 25.240286 13.812327
Si 4.649829 16.820357 28.118364
Si 7.521796 18.730996 7.456237
Si 10.041368 0.661743 2.226204
Si 26.769096 30.431854 2.368666
Si 9.164715 10.599959 19.127741
Si 6.180302 25.740588 24.601918
Si 27.766708 26.622215 5.734361
Si 10.202891 21.102783 22.102780
Si 14.168906 4.761394 10.652583
Si 23.333594 14.182632 15.961550
Si 13.808006 7.932009 11.738395
Si 10.292286 20.970566 2.734923
Si 10.767337 27.614812 15.439336
Si 30.341360 18.151634 21.482143
Si 3.877443 15.330041 10.731438
Si 14.184130 23.344098 19.754395
Si 30.489900 15.048568 5.885848
Si 16.440114 25.283506 17.423390
Si 3.076438 5.403578 19.471862
Si 25.113320 27.851602 28.048094
Si 2.661696 26.699249 13.882129
Si 0.693271 7.403256 1.937522
Si 11.075699 15.656343 12.318858
Si 25.970555 9.701988 19.531774
Si 24.681569 0.985993 21.223678
Si 30.179811 18.405456 5.744398
Si 2.472599 21.192797 18.824016
Si 4.407885 15.474499 25.276885
Si 4.333073 28.965949 14.134980
Si 22.048160 7.713649 9.118743
Si 15.830919 22.008153 12.086480
Si 28.227680 13.226931 14.779096
Si 22.980502 3.370051 0.520840
Si 11.317913 8.878679 26.275368
Si 6.444473 24.186380 26.992984
Si 4.850066 23.294679 19.601196
Si 5.126159 25.962751 5.115116
Si 3.541167 15.493117 19.544347
Si 15.451580 18.347671 26.261108
Si 16.359471 0.693981 6.471699
Si 4.522015 4.822493 3.117346
Si 16.083608 6.388755 20.875902
Si 27.578398 7.244428 20.766048
Si 5.165994 1.516615 12.587839
Si 15.200357 1.205250 24.521367
Si 8.471499 25.073857 28.547669
Si 15.981577 29.689015 16.794283
Si 3.115726 12.010083 29.738121
Si 13.568871 16.242424 20.638214
Si 21.359981 22.366638 25.858588
Si 3.179470 0.545038 30.073606
Si 8.023454 11.210717 1.303557
Si 19.109985 11.195864 18.601474
Si 19.318130 18.157725 1.976743
Si 19.470063 24.332653 24.103263
Si 14.030100 16.343978 2.883079
Si 14.221067 13.038343 25.394864
Si 29.637449 3.893018 5.227356
Si 18.860587 25.506246 5.188459
Si 20.512065 9.255327 27.955260
Si 23.182003 24.858931 12.811449
Si 16.872074 4.858391 3.680102
Si 1.473421 7.307817 13.813459
Si 15.561831 22.530931 5.503523
Si 28.626002 29.467112 12.953851
Si 25.218535 12.554691 14.947357
Si 19.297842 3.484806 29.324022
Si 14.993648 23.640091 1.560703
Si 17.494586 18.597112 21.429857
Si 21.157427 10.349451 7.947435
Si 10.669249 4.752340 6.904249
Si 21.186280 20.026790 10.837371
Si 25.581668 3.215025 13.745875
Si 24.950617 5.788567 15.757241
Si 20.273728 12.884846 30.506488
Si 6.752314 28.386895 9.166118
Si 27.299011 29.884885 21.554990
Si 8.339390 27.206832 11.531417
Si 27.829517 26.887384 11.066923
Si 4.442955 10.229056 24.553767
Si 22.608104 29.715160 23.192304
Si 9.881739 4.892676 24.988741
Si 6.005709 21.796841 2.033147
Si 6.776258 1.685863 20.575942
Si 28.429877 8.532103 10.110165
Si 8.421078 21.031695 5.484224
Si 29.477880 14.007512 30.592554
Si 9.533559 16.643460 18.715173
Si 29.171237 7.449125 7.250072
Si 28.024495 18.641998 25.386008
Si 1.057324 10.077155 23.634113
Si 5.807337 7.044692 20.196451
Si 23.328077 27.282627 16.561843
Si 25.253690 10.952996 12.143857
Si 17.659124 29.842994 3.128269
Si 29.772219 24.213158 5.251114
Si 20.828094 27.851559 14.976009
Si 23.053791 25.138824 25.585114
Si 3.785367 3.588296 30.415192
Si 18.242179 9.690925 4.248802
Si 1.288915 2.162347 9.427055
Si 17.069932 19.134986 30.218781
Si 10.329260 14.741829 20.946707
Si 28.605693 28.001845 17.710084
Si 30.498043 20.566237 12.501217
Si 17.029423 30.818254 20.695369
Si 6.052208 12.650020 13.580058
Si 23.773177 7.023418 13.178133
Si 0.744459 13.876110 2.641718
Si 20.230930 13.735509 3.653783
Si 2.092680 7.902940 6.891414
Si 9.595800 15.949419 0.313071
Si 4.713084 10.842238 27.713417
Si 0.905805 22.470733 7.617352
Si 11.379711 14.422280 28.558872
Si 1.790603 19.417165 3.561007
Si 4.691108 15.876780 22.356456
Si 24.935167 21.645350 19.872060
Si 20.431539 18.675107 28.116687
Si 18.867743 5.096488 12.113743
Si 8.002389 10.860891 12.965758
Si 12.406553 2.464737 24.488972
Si 1.456147 4.320234 28.810361
Si 24.684904 18.775293 21.673155
Si 19.169475 27.847302 1.993854
Si 13.711068 0.925138 10.081283
Si 3.387739 3.901374 12.457109
Si 4.102181 14.423074 2.559547
Si 14.734825 2.643819 4.336803
Si 29.873173 10.900390 19.241550
Si 0.579752 25.547863 21.687124
Si 4.620279 19.894185 7.538925
Si 21.003146 24.353171 3.446247
Si 26.312013 14.557420 20.989273
Si 12.092380 23.564086 17.303556
Si 2.008049 26.036235 5.693899
Si 27.757200 15.420701 16.952319
Si 11.023933 8.011931 21.733237
Si 11.768626 11.607921 24.923572
Si 25.590603 6.637587 22.507466
Si 22.091335 30.486385 0.915539
Si 7.310795 28.095928 23.431444
Si 8.240576 4.222858 11.418809
Si 20.985684 22.723364 12.008862
Si 14.201275 18.216004 8.067035
Si 21.497565 10.514274 17.090451
Si 8.316676 25.100441 19.316364
Si 17.702389 2.800004 23.104609
Si 10.937409 16.179478 5.583328
Si 13.216037 20.495958 6.010112
Si 28.817453 21.198154 16.553672
Si 12.886746 29.865215 16.110307
Si 16.356450 19.350574 16.346538
Si 21.911722 14.973761 7.393231
Si 17.058385 24.925073 11.191741
Si 2.867872 29.136074 24.372670
Si 19.341168 23.563986 9.394126
Si 15.430171 10.621200 26.605941
Si 17.193360 25.757792 1.084063
Si 4.928236 11.710972 2.005958
Si 16.290129 4.954271 23.682952
Si 1.958822 9.785210 16.224433
Si 15.659995 11.280248 29.566871
Si 17.490348 13.715710 29.168245
Si 19.176950 3.968392 5.550455
Si 8.828255 6.028581 8.966280
Si 11.466102 28.982847 26.966829
Si 30.075985 4.297717 16.633815
Si 21.699543 27.705813 12.074388
Si 28.126890 3.854164 12.092880
Si 16.175976 28.644170 19.346184
Si 23.969602 29.835754 11.483978
Si 4.549934 23.811076 29.623926
Si 0.771201 23.038092 23.645698
Si 11.427442 12.360461 18.979376
Si 10.113307 27.635909 24.696980
Si 20.231954 1.760077 24.363928
Si 16.510774 1.709961 10.090037
Si 28.241885 10.915030 5.692125
Si 25.524382 1.365683 25.751524
Si 22.203988 17.347331 15.254913
Si 22.414871 1.426206 15.386163
Si 28.231686 18.525603 10.533347
Si 12.378009 13.442983 5.850774
Si 11.264178 13.002524 15.822565
Si 29.515830 2.974982 24.996425
Si 5.517554 24.681146 12.573741
Si 6.833798 22.027219 17.293638
Si 12.227874 29.215843 6.092508
Si 6.016481 7.382452 5.726974
Si 22.757903 15.458958 3.479450
Si 27.393387 8.769896 27.685136
Si 23.949170 4.733522 3.331476
Si 20.686826 8.125692 3.416402
Ca 8.640581 7.015648 19.027426
Ca 19.769150 9.234593 0.886131
Ca 7.423484 21.691524 20.269892
Ca 29.809418 6.642324 26.971940
Ca 21.581002 27.522010 28.376657
Ca 22.781624 17.262092 18.470180
Ca 29.527485 1.342940 0.709395
Ca 21.382368 17.795798 6.444387
Ca 27.999996 26.230872 20.569115
Ca 25.975904 22.069352 14.817544
Ca 11.211365 6.522171 10.913054
Ca 12.251264 22.650602 0.967445
Ca 1.098191 19.250954 9.088337
Ca 22.761032 28.524086 19.687279
Ca 6.106620 24.967149 16.823345
Ca 28.764380 16.607853 27.301909
Ca 8.080203 18.673664 1.694493
Ca 7.633353 1.324445 11.171377
Ca 29.670562 1.969293 20.869577
Ca 15.677384 21.662938 28.246797
Ca 11.912016 6.020840 0.932450
Ca 25.566012 28.608731 18.964342
Ca 5.575489 14.915758 7.259139
Ca 2.192210 29.697117 6.325785
Ca 15.512062 13.419767 19.348962
Ca 12.314478 29.346040 30.380796
Ca 2.971316 12.772906 18.907483
Ca 22.145147 2.003124 9.317519
Ca 8.459679 14.291877 13.192021
Ca 15.427064 0.974719 1.319424
Ca 22.425789 13.281742 19.335783
Ca 13.547603 1.579776 27.969197
Ca 14.725650 4.628674 0.614594
Ca 23.683651 8.361266 28.483846
Ca 10.755552 24.004262 20.289099
Ca 13.433089 24.233792 7.235527
Ca 2.849531 28.897334 2.734277
Ca 24.289479 0.686754 3.469713
Ca 26.109039 5.346896 6.125603
Ca 12.812791 23.933351 4.319502
Ca 25.615117 20.331009 8.615202
Ca 16.704150 9.273854 18.734190
Ca 3.977667 26.997201 27.040968
Ca 18.415670 0.586277 12.718759
Ca 23.321954 22.359845 9.741343
Ca 9.182191 24.774511 16.164802
Ca 29.350536 15.696134 23.828941
Ca 10.645362 16.685447 15.008488
Ca 25.924725 28.655608 8.948708
Ca 19.868100 15.928539 9.373781
Ca 30.329894 10.732657 8.700450
Ca 23.407534 4.123050 24.247311
Ca 22.095303 26.170701 22.268456
Ca 9.199948 23.801985 9.106030
Ca 21.480054 12.985247 22.749478
Ca 18.299702 8.196340 8.675544
Ca 28.743112 30.243040 27.053091
Ca 9.469202 24.129646 25.372930
Ca 1.766834 28.607169 16.922472
Ca 20.675098 3.825606 26.339956
Ca 18.180723 23.614112 3.513232
Ca 9.569403 12.827171 10.204764
Ca 9.145711 16.101749 8.219166
Ca 17.426718 0.586631 26.286564
Ca 0.794747 14.088156 12.652670
Ca 7.756819 24.165238 4.654108
Ca 26.738337 2.780906 3.791367
Ca 26.627305 4.413708 25.654538
Ca 12.131734 2.233342 19.067023
Ca 10.695145 3.195292 9.887229
Ca 10.830234 9.424535 2.186486
Ca 22.993710 11.862208 5.154572
Ca 18.356786 14.692999 6.681588
Ca 10.568453 17.697889 27.401817
Ca 23.223230 16.990424 27.157421
Ca 15.603534 23.917699 25.255746
Ca 7.749841 9.062410 3.672258
Ca 2.529587 1.339609 15.213822
Ca 9.543030 20.666211 9.814178
Ca 20.758756 0.558255 27.355043
Ca 19.594334 27.846000 21.063028
Ca 12.452555 18.341037 11.084283
Ca 15.294806 26.477785 5.869994
Ca 1.268067 16.075954 16.884373
Ca 3.563489 18.129358 12.002048
Ca 6.634861 7.395755 16.407531
Ca 30.065085 24.110128 18.239295
Ca 3.439431 7.827616 22.159918
Ca 28.070744 20.391262 7.685074
Ca 4.712122 9.477305 13.972996
Ca 21.184377 8.186755 14.714838
Ca 16.264121 15.921217 13.361056
Ca 26.517141 3.207483 22.795923
Ca 11.528326 8.526173 17.308815
Ca 10.615247 26.366158 6.071514
Ca 2.514802 16.690849 7.628799
Ca 28.595480 22.183480 29.520971
Ca 27.394221 18.913790 13.648532
Ca 12.681494 5.615289 4.555767
Ca 20.475504 21.004496 4.640242
Ca 14.929777 16.244162 23.450267
Ca 12.622266 19.653046 20.892446
Ca 21.720291 21.082806 20.248292
Ca 9.067364 1.230341 24.233941
Ca 13.322527 9.083079 23.903972
Ca 8.142914 10.024724 6.860389
Ca 27.974651 6.826095 4.077584
Ca 27.836763 7.739848 17.708196
Ca 2.059499 10.941456 4.529687
Ca 18.866088 21.162290 30.480089
Ca 28.874442 22.298216 10.888087
Ca 1.559595 17.690629 24.853511
Ca 11.373587 18.810915 30.475696
Ca 20.190353 20.835602 23.098050
Ca 1.899848 10.527834 12.971243
Ca 8.606284 22.880895 13.162070
Ca 4.130190 18.318178 1.347925
Ca 6.898215 5.380870 0.751309
Ca 4.782713 1.793372 3.586712
Ca 24.208831 24.816811 28.897837
Ca 26.149501 1.870288 29.748624
Ca 27.476148 16.191832 12.732728
Ca 29.485897 10.337251 2.322452
Ca 18.313477 8.234825 16.684608
Ca 10.974340 27.018882 21.632499
Ca 18.152841 20.919542 26.943993
Ca 9.659822 1.507674 17.029073
Ca 5.628064 22.183954 14.454893
Ca 2.922279 30.306642 20.724787
Ca 20.104758 20.357793 7.808432
Ca 10.875232 10.234960 11.880489
Ca 19.621184 3.729582 18.388963
Ca 16.871974 5.416087 8.505274
Ca 16.182710 11.220791 15.881195
Ca 3.814311 23.683004 22.638931
Ca 13.392095 3.031910 7.147141
Ca 23.070248 11.577435 29.324514
Ca 5.900024 5.762801 27.640061
Ca 7.107848 29.751241 26.736291
Ca 12.708663 22.904245 27.341561
Ca 18.661297 15.958614 23.097206
Ca 8.871039 17.648116 11.265954
Ca 21.322191 0.693170 6.494838
Ca 26.035547 21.881748 4.458716
Ca 3.606536 18.679316 14.931359
Ca 29.137547 23.469990 13.838605
Ca 12.221121 29.855807 22.517067
Ca 7.969008 28.052736 17.448334
Ca 2.736023 26.188017 19.453616
Ca 13.574668 17.546460 13.964275
Ca 13.439411 13.451709 22.239115
Ca 10.919351 0.549088 8.090367
Ca 29.325760 17.991274 17.836720
Ca 14.739220 23.386352 15.098241
Ca 8.724160 29.087278 5.317819
Ca 17.638450 2.837495 15.949731
Ca 21.887906 21.519125 29.239763
Ca 2.913735 3.750276 6.856767
Ca 21.623465 18.533921 24.950900
Ca 13.733700 26.230097 15.818409
Ca 23.317265 4.817475 7.856245
Ca 14.288525 2.739885 15.523191
Ca 3.483732 10.343255 8.481384
Ca 29.966382 14.568200 19.807304
Ca 24.812583 26.003558 9.690247
Ca 13.735081 6.747939 8.208255
Ca 9.342038 22.918076 1.760981
Ca 30.332731 6.150267 23.060382
Ca 13.350681 14.012435 13.813108
Ca 21.258222 27.434328 25.038592
Ca 8.776819 7.633541 29.824616
Ca 8.811677 20.293459 15.371040
Ca 6.348639 13.111662 19.335998
Ca 8.359243 3.727218 14.363239
Ca 6.805135 25.259613 1.391456
Ca 3.867516 30.305986 9.484321
Ca 4.892142 13.727102 16.966385
Ca 24.479838 15.550062 5.405785
Ca 5.510753 2.268882 28.243485
Ca 29.373013 26.386424 8.733653
Ca 28.168197 7.947466 0.910056
Ca 12.046882 15.545131 8.692966
Ca 16.165608 20.591265 24.063505
Ca 9.486262 4.710117 20.934300
Ca 21.097740 6.786298 29.785435
Ca 22.016653 11.606301 26.113277
Ca 14.609201 2.509363 21.677045
Ca 23.882191 18.737535 5.181484
Ca 16.131915 21.148592 8.472216
Ca 12.616716 18.807740 23.429123
Ca 1.949741 21.614407 0.325095
Ca 18.171531 27.743144 10.889634
Ca 12.928529 15.879229 17.364329
Ca 11.150632 26.880884 18.635315
Ca 9.307280 0.914237 28.595222
Ca 19.885159 15.359733 12.578380
Ca 23.904628 22.176906 1.379623
Ca 17.681592 6.636564 28.796747
Ca 21.742783 6.701036 17.851101
Ca 19.899501 4.840923 2.066849
Ca 26.732912 29.283322 5.690082
Ca 10.349955 20.608614 25.218315
Ca 19.945626 5.300277 22.662129
Ca 29.327011 28.900522 4.076535
Ca 25.060486 28.037854 0.750019
Ca 11.161180 2.095615 4.836205
Ca 22.397067 20.580113 14.575473
Ca 30.571349 5.395406 10.678939
Ca 7.369622 17.646789 14.433176
Ca 30.547718 19.569608 27.697656
Ca 27.436059 27.926446 30.156091
Ca 4.744021 11.165794 5.829258
Ca 20.525432 19.383161 17.667616
Ca 5.514656 28.650119 1.827864
Ca 28.328281 25.942884 23.927671
Ca 12.978881 20.767785 14.713093
Ca 5.507973 20.247881 4.211719
Ca 5.985031 1.183394 16.339070
Ca 26.633680 24.600092 17.959322
Ca 7.262228 7.185455 13.571127
Ca 25.657923 10.202372 3.352462
Ca 7.174262 11.480335 16.295184
Ca 16.594386 12.890486 23.326492
Ca 13.227131 10.026869 4.379152
Ca 3.361436 27.427787 10.820376
Ca 25.230674 27.023937 3.700737
Ca 24.689268 17.367045 0.812170
Ca 24.079485 21.375622 25.074398
Ca 19.878807 29.633113 9.640469
Ca 26.336867 4.286496 9.729451
Ca 26.551489 6.112626 29.059863
Ca 7.285626 23.331749 22.562582
Ca 10.333495 21.052407 18.461476
Ca 26.903743 0.983025 9.943956
Ca 21.376272 15.790941 30.294021
Ca 11.397310 1.807605 12.974136
Ca 12.811940 5.321190 23.518624
Ca 2.837318 21.580972 12.691254
Ca 16.940737 8.440796 24.419928
Ca 21.986554 2.818089 20.316526
Ca 18.068889 12.010841 8.646594
Ca 26.666953 18.561802 28.770162
Ca 30.357832 28.964779 20.645842
Ca 28.982391 11.873962 11.722901
Ca 5.973581 10.240467 20.698596
Ca 3.962582 8.550338 2.830486
Ca 13.016665 10.451610 14.905591
Ca 25.233787 26.583658 24.210702
Ca 4.755021 3.365759 9.816755
Ca 14.019951 29.312495 12.794270
Ca 17.763735 14.945356 2.340246
Ca 26.863078 24.654960 26.506081
P 4.577567 8.458422 29.496278
P 26.256885 24.739975 1.797764
P 9.408907 13.084951 26.414970
P 24.908318 20.342054 12.385601
P 8.556027 27.183089 3.224833
P 7.669352 0.842002 8.226085
P 18.604800 28.068093 6.880534
P 16.661277 3.405153 28.523801
P 13.579689 21.730819 10.286560
P 24.955075 7.308479 2.289322
P 8.598270 7.407581 26.252771
P 7.707298 12.959716 4.969230
P 17.832833 28.563971 23.497889
P 12.572505 4.554690 27.202566
P 11.481755 4.950376 14.059256
P 4.715537 10.212561 17.663740
P 27.876101 4.434299 1.286165
P 29.933198 30.456625 7.874493
P 23.404140 4.375566 27.757318
P 20.965498 14.961056 25.385108
P 5.119580 16.548710 4.588337
P 25.115924 2.082151 7.139169
P 7.108774 27.830403 28.944455
P 25.511858 10.333023 7.263072
P 24.840232 25.786791 20.934999
P 10.170724 5.018629 16.663235
P 18.681321 26.058248 26.800744
P 25.545019 21.520783 28.210528
P 5.089311 29.070350 5.299012
P 27.468651 13.276215 25.659845
P 8.892877 29.945312 14.510076
P 16.309498 8.591330 0.745306
P 9.119107 30.227006 19.992095
P 1.674468 21.547473 15.865018
P 24.612941 20.184383 17.211248
P 1.390570 1.600411 4.430659
P 29.728449 24.646380 27.232897
P 2.502992 3.555187 21.879959
P 11.254516 15.736823 23.724080
P 9.251866 5.960096 3.375750
P 23.006210 21.291484 6.538519
P 7.479558 2.210068 1.202264
P 10.902679 28.427976 11.310467
P 9.683057 21.561621 28.577052
P 22.146291 19.784689 1.989884
P 16.054909 11.741195 3.368875
P 19.629456 5.209826 15.298242
P 23.127805 6.053160 21.179389
P 5.039856 28.459481 18.462352
P 17.827821 6.257976 25.407943
P 9.445576 9.518366 15.064944
P 14.882131 6.565089 17.060674
P 20.544417 6.855571 6.181865
P 3.183263 6.421764 25.455305
P 18.589800 16.098608 18.162119
P 13.137635 12.311970 9.966731
O 23.712721 13.129799 9.610430
O 11.405439 14.902375 22.245615
O 10.118217 21.070403 13.685779
O 18.683796 28.001296 8.379860
O 17.562821 28.030399 28.584838
O 5.056068 27.600114 5.027593
O 26.913757 11.473812 22.556912
O 19.878945 1.689697 8.196597
O 2.392723 5.163077 8.079894
O 7.540253 21.833945 9.202115
O 17.913929 9.462403 12.323170
O 20.700760 3.023760 5.616283
O 12.436191 7.827034 25.860760
O 14.613711 28.099788 24.641384
O 9.484372 13.468850 15.821321
O 19.017468 1.155950 14.937207
O 27.362377 28.475858 11.689926
O 23.889887 0.545290 25.860235
O 3.568620 16.727811 10.290190
O 11.860815 10.662263 30.343705
O 14.809784 24.962807 17.075752
O 5.840956 28.206475 13.954486
O 19.985161 8.211479 28.773059
O 21.885137 13.638204 15.896991
O 10.525090 23.431523 17.692957
O 4.624211 19.899844 13.010340
O 29.986123 19.037043 7.094914
O 25.246072 2.429376 20.635282
O 5.300582 23.906401 28.464490
O 14.763059 18.502900 24.727763
O 9.681618 26.770875 16.510668
O 7.344285 9.617744 9.421781
O 27.562538 12.599993 5.247464
O 10.158317 16.642100 23.506767
O 29.913941 18.193671 1.310068
O 0.473581 28.243417 2.424380
O 21.124706 19.199682 22.378901
O 6.347895 2.535494 21.775919
O 17.483922 2.499900 9.107998
O 9.898442 1.063356 14.676375
O 11.460894 10.007801 25.174731
O 23.173563 16.085937 7.635993
O 10.403159 24.915547 22.707603
O 26.278381 1.589899 18.855727
O 12.591156 11.921886 19.407992
O 5.440158 6.935717 6.896149
O 27.295200 2.422165 11.374981
O 0.860565 4.781984 4.893959
O 14.534979 27.751992 3.303554
O 3.969575 26.706091 2.637895
O 8.039041 4.983502 12.895829
O 5.920899 4.430357 23.252044
O 17.619916 30.429705 10.261808
O 19.794225 5.580301 5.709870
O 19.999046 1.212479 11.683270
O 16.761779 12.294471 29.198944
O 8.241848 19.888669 6.642733
O 27.716734 14.927942 15.297100
O 27.107320 26.943747 9.750161
O 14.214326 7.523509 13.544871
O 24.654166 25.246667 26.522273
O 26.628188 26.055116 12.426620
O 26.018833 7.639855 3.215154
O 7.573285 24.910294 23.902962
O 18.599738 19.700752 24.703489
O 11.003351 14.768967 24.695419
O 20.209945 23.136577 13.209780
O 2.798730 6.873614 14.512676
O 29.560303 15.883154 29.795057
O 25.765366 16.283302 8.613053
O 28.396656 30.091955 8.627862
O 2.092101 6.888354 19.049570
O 28.542888 12.756073 26.831972
O 17.112264 3.675432 18.431207
O 2.272817 3.701864 27.518150
O 20.173520 28.210439 11.283795
O 24.064026 24.299223 6.338927
O 19.736638 14.655217 26.369148
O 16.884688 8.879232 5.035353
O 26.008295 8.170259 27.447605
O 6.177565 25.238759 8.759400
O 24.355373 21.603560 13.151990
O 11.397920 9.539117 27.953421
O 6.123554 16.426000 22.549457
O 8.670981 1.351389 1.484605
O 25.953239 21.104037 2.407384
O 13.543154 30.507941 14.764659
O 26.013585 24.621158 3.650612
O 13.276927 17.517727 9.000760
O 21.579565 21.552048 6.789067
O 7.687110 25.974560 3.255845
O 14.677258 23.778398 5.340093
O 4.851995 23.439219 9.441169
O 19.732483 28.921966 6.698619
O 8.732027 8.268450 11.403251
O 26.795713 23.987407 10.707222
O 17.139147 28.210879 6.425677
O 8.585812 13.213773 6.056760
O 22.231856 22.201051 22.096949
O 23.150893 19.567778 17.549881
O 21.747065 25.728093 26.498060
O 12.293277 3.033442 23.295831
O 17.773597 14.443166 27.197570
O 0.423039 17.784684 19.940058
O 22.750223 28.922200 4.122773
O 7.782641 26.620500 28.579676
O 18.730443 11.063610 5.617382
O 14.841750 17.335638 6.791418
O 12.802859 10.503422 17.136645
O 5.742199 21.183803 16.402651
O 8.332845 16.454951 29.258578
O 27.287426 22.065251 9.065490
O 14.079347 21.983952 21.060319
O 4.313913 10.629498 26.083847
O 15.926291 27.024428 1.189652
O 13.179533 17.722738 2.615687
O 26.300202 1.366085 1.614036
O 11.172072 24.760707 9.872260
O 6.569792 6.931626 23.620841
O 2.262814 4.411865 20.686464
O 10.654095 17.999661 18.117116
O 12.026292 8.473839 20.460648
O 29.746172 23.037191 6.394009
O 15.480940 25.654685 7.869850
O 7.329049 8.499441 5.698189
O 12.922262 1.388402 30.199983
O 27.652649 13.584669 0.675275
O 11.229792 13.387308 20.015981
O 8.217681 18.481807 28.453121
O 2.585626 9.374485 6.586291
O 11.421902 30.088298 28.141495
O 28.951655 27.696109 16.216502
O 8.656035 9.769237 1.479974
O 7.121556 26.011697 20.683115
O 29.376068 5.564438 8.208954
O 25.856983 28.904224 2.478889
O 24.563843 6.206293 21.587471
O 12.120797 28.524920 15.842192
O 14.565402 21.497086 5.817986
O 27.617139 13.308089 21.014576
O 20.832402 25.742969 29.790458
O 8.258586 25.740317 10.630109
O 18.738336 18.042688 3.415929
O 13.580216 8.576021 29.357637
O 9.933323 2.516552 22.234944
O 5.114468 20.832736 8.768347
O 12.712419 25.969846 4.840425
O 14.050175 10.539135 6.280214
O 3.923869 20.146352 25.488443
O 7.777684 11.864119 29.921642
O 25.182082 24.218879 0.636506
O 1.289188 13.861831 24.250726
O 7.151244 29.916385 8.813379
O 6.482004 11.202109 27.456528
O 19.238272 8.403699 14.371182
O 8.503473 8.447283 15.349693
O 26.705884 3.802541 19.418107
O 16.494391 21.698367 25.981482
O 26.284890 13.465682 26.456044
O 5.338135 7.283776 14.433669
O 17.868398 15.286867 11.243589
O 30.188248 24.524949 22.841326
O 5.458856 0.996038 11.228270
O 1.370485 9.225784 10.039321
O 17.431050 22.544430 21.347082
O 22.840295 6.611060 19.980340
O 4.258789 6.594137 26.551979
O 18.845656 15.615509 16.435470
O 4.150705 16.722656 26.415910
O 1.958436 17.545745 13.752808
O 3.856652 9.942263 12.181416
O 21.488281 14.794680 3.742414
O 1.549840 26.102994 7.312225
O 1.324195 28.163469 28.265723
O 16.500413 11.891110 11.988697
O 2.174196 7.010398 10.342755
O 19.083610 17.315216 24.949848
O 25.583146 29.625386 20.949582
O 12.368179 5.047261 6.925731
O 10.969082 8.862649 15.055548
O 18.744746 5.433769 26.150386
O 4.409729 30.827167 13.372814
O 17.263600 21.164061 11.815769
O 27.537989 1.185436 21.505453
O 13.930580 6.232058 2.437358
O 21.666348 27.094298 8.500196
O 15.797403 25.982640 24.606379
O 20.300979 22.813377 10.720946
O 16.929994 27.621776 23.131115
O 21.162617 10.579545 6.377151
O 18.774785 14.199824 4.352137
O 9.168911 20.369922 3.968106
O 22.532131 23.591685 16.755379
O 19.176355 25.524499 20.402795
O 25.824255 1.961262 27.299044
O 7.113228 13.809481 16.812255
O 7.971519 17.273348 6.510943
O 22.257398 8.521762 10.644012
O 29.777378 16.381448 13.162917
O 12.244079 16.018566 12.676162
O 7.589153 25.620527 18.136350
O 2.388521 27.809753 21.314994
O 23.175388 8.660618 25.143975
O 11.089297 19.358775 2.936002
O 4.241638 12.006584 20.782806
O 19.246818 11.770019 11.939091
O 23.547447 30.408698 15.341152
O 17.951228 19.596657 8.084632
O 14.670648 15.544548 28.991043
O 26.226487 29.781294 14.950394
O 5.153232 24.794825 4.023495
O 25.775357 11.333332 8.110426
O 11.441122 12.682464 17.295753
O 16.829224 2.243594 11.806474