1960
Frame 1 Step=1000 T=2879K E=-13753.8eV Box=30.044A
Si 7.182201 17.312059 29.171631
Si 16.284354 3.566855 12.749075
Si 2.799561 20.703126 26.297922
Si 17.604487 25.769748 20.293827
Si 0.431084 21.351777 21.137907
Si 2.465331 13.408942 7.346291
Si 2.033529 5.825724 4.499531
Si 11.222539 23.775327 11.075524
Si 29.621590 27.154677 14.902229
Si 26.357809 13.590007 0.532780
Si 15.662157 8.882908 9.871615
Si 11.666389 18.558885 17.369343
Si 12.297914 18.468954 3.709734
Si 26.848628 19.836357 2.011046
Si 14.238534 24.828740 28.767779
Si 23.556706 29.276685 25.853170
Si 12.752080 12.150198 0.290526
Si 23.334982 28.273616 5.433048
Si 27.161987 0.961724 14.823414
Si 20.866265 12.094616 12.200972
Si 13.848835 10.179597 7.813714
Si 16.276342 27.179814 27.850496
Si 0.493418 4.226070 13.900662
Si 6.642019 26.921034 14.160743
Si 18.206770 13.965457 26.125970
Si 19.002435 13.856698 20.330280
Si 14.538496 7.348184 28.925370
Si 2.657983 24.458628 15.911508
Si 29.545178 15.788027 9.510571
Si 22.752128 17.323977 11.274715
Si 8.479301 14.576452 16.450297
Si 26.635454 8.309969 12.582440
Si 4.220642 6.192601 14.606796
Si 6.782505 14.166652 9.845232
Si 16.905559 23.711916 22.393019
Si 18.105822 19.765052 11.686719
Si 15.570408 16.468624 5.586513
Si 25.043985 18.033816 24.553567
Si 19.062323 6.493772 20.084320
Si 19.133227 22.964439 14.663479
Si 19.469419 0.579533 18.998930
Si 22.258505 28.134812 2.642791
Si 4.989512 24.750579 9.695240
Si 1.114733 13.191724 23.084915
Si 21.031407 23.194876 17.297838
Si 11.451274 2.707085 21.916504
Si 17.909634 29.258358 29.508324
Si 24.478557 17.789258 13.648793
Si 24.749663 29.483807 14.643031
Si 27.222151 29.038594 24.478749
Si 15.433670 13.444237 6.055972
Si 22.419591 12.812284 9.491626
Si 5.524352 3.119600 22.883420
Si 23.496919 4.371754 11.761929
Si 17.117774 14.936780 10.174604
Si 15.239723 26.168833 9.349946
Si 6.061539 19.451894 17.149922
Si 10.047117 4.326307 28.953311
Si 10.499680 19.567763 13.159677
Si 17.903125 11.114080 12.643220
Si 13.872320 15.766996 27.615652
Si 6.184970 20.018724 12.478379
Si 15.962682 17.738584 10.472941
Si 22.861288 23.506933 21.302304
Si 0.529776 25.658685 11.383074
Si 14.191188 7.811122 2.875352
Si 7.904368 10.941427 28.301957
Si 6.571646 18.145580 22.539016
Si 18.675656 19.906259 14.664281
Si 12.181544 26.081405 9.412237
Si 14.689818 20.581648 1.372400
Si 27.648281 11.819375 21.218631
Si 18.206469 14.442355 15.699197
Si 8.802754 17.463481 24.528430
Si 3.015908 15.153097 29.960286
Si 6.732722 8.572637 24.089988
Si 18.389738 25.927079 14.996868
Si 22.671810 28.409815 8.347047
Si 27.372997 17.649453 20.689807
Si 7.213827 3.319894 18.318993
Si 27.003066 18.654647 5.128318
Si 5.677917 5.727289 8.243305
Si 23.074326 24.951925 5.673274
Si 0.150921 27.507093 28.502151
Si 13.214958 19.794195 27.620659
Si 2.060480 29.510428 27.515187
Si 2.341049 13.751243 15.086098
Si 18.671350 18.293196 7.698327
Si 8.098843 13.091176 22.419541
Si 15.228006 27.012869 23.590856
Si 0.517628 10.060036 29.198571
Si 6.564466 10.959554 9.252323
Si 0.460617 26.813477 1.447450
Si 6.911754 5.750694 22.696647
Si 27.148668 23.681990 9.147109
Si 0.541393 17.023737 0.073007
Si 21.090594 24.457225 0.423020
Si 25.911556 24.326834 6.564275
Si 8.721385 8.795544 9.993519
Si 21.873691 2.101949 12.216423
Si 26.539075 23.194976 23.827303
Si 29.850726 19.774166 1.262199
Si 2.604496 23.814016 25.692798
Si 13.713388 8.495204 20.603180
Si 3.325732 18.480871 18.149185
Si 0.074209 0.220223 23.906318
Si 16.254109 28.058801 14.133303
Si 18.548102 18.534096 25.654154
Si 25.275224 13.700769 3.398448
Si 20.251064 9.317178 20.774932
Si 29.141865 9.165421 14.390766
Si 20.336890 5.271562 9.568376
Si 14.188472 22.440930 22.568276
Si 15.554685 12.950570 11.732386
Si 27.555063 14.067206 5.399609
Si 29.894991 12.640716 27.713295
Si 18.496895 24.033705 29.054860
Si 3.249920 25.603708 1.726709
Si 15.583327 4.073006 18.715715
Si 24.641095 13.785593 26.310140
Si 14.013327 26.307636 20.635127
Si 7.019552 21.536046 25.445173
Si 10.858205 22.441573 6.759742
Si 4.407546 11.066010 11.434750
Si 21.459334 2.972334 4.165321
Si 0.467264 1.515300 18.008179
Si 24.640794 15.059159 23.453956
Si 25.479122 12.569312 9.486316
Si 4.509606 4.078514 17.004308
Si 20.067095 9.919350 23.878077
Si 14.514061 28.927373 25.940498
Si 22.661195 16.106393 21.466244
Si 27.671434 22.686732 20.909429
Si 1.345301 8.235654 10.948638
Si 3.069256 21.428589 5.586884
Si 25.767859 2.594644 19.199446
Si 26.180149 10.462225 29.933547
Si 15.326951 7.872912 14.471498
Si 19.599410 0.521264 16.011454
Si 22.903349 9.511152 1.780448
Si 4.105734 12.660746 22.318092
Si 28.850160 8.617373 25.030065
Si 2.323273 3.568227 25.986866
Si 26.787038 15.143182 8.295642
Si 15.665046 15.979307 0.070904
Si 28.149935 4.590895 19.340430
Si 14.427488 28.865867 8.224015
Si 16.022871 7.526094 5.303969
Si 0.534142 8.483216 21.105416
Si 10.560770 8.247631 5.233656
Si 29.448136 4.010194 8.190938
Si 7.357647 25.803926 7.505829
Si 18.015489 21.238310 20.665772
Si 1.137006 7.041915 17.733276
Si 18.162905 8.087957 13.214857
Si 24.242110 17.093839 8.522193
Si 7.675153 18.735144 19.625348
Si 23.088665 3.723784 17.390554
Si 22.650006 9.588681 11.983250
Si 26.264072 24.641295 12.160713
Si 27.674038 0.832550 17.778542
Si 2.121648 25.145734 8.731560
Si 7.118728 4.536055 4.558838
Si 13.777063 10.837254 18.405120
Si 19.506874 1.808389 1.895497
Si 3.089145 6.358174 9.243520
Si 6.011065 3.030319 6.721556
Si 18.173784 10.916785 26.229259
Si 18.405961 22.583080 6.747504
Si 11.601895 23.689801 23.408489
Si 1.110169 0.154936 12.003539
Si 1.718748 14.361838 25.959927
Si 5.979739 21.715409 9.659760
Si 4.682159 15.528847 13.910476
Si 24.735333 10.815543 17.325579
Si 29.294010 10.968166 16.679633
Si 26.861047 10.721705 24.069257
Si 1.765751 7.269697 29.330809
Si 15.153053 14.049933 16.254583
Si 17.947890 18.304913 4.792110
Si 25.108680 7.353992 8.143789
Si 2.073127 12.888079 10.259929
Si 16.685836 21.973395 17.817826
Si 8.136238 16.697659 5.033683
Si 15.640310 10.652204 21.852610
Si 20.746890 12.737258 15.205674
Si 11.056611 26.405257 1.503145
Si 20.586455 18.183035 21.324537
Si 4.175997 23.575434 3.683836
Si 28.696836 21.671845 25.325197
Si 4.002172 19.898748 29.018507
Si 25.384049 13.802360 18.274021
Si 8.078864 3.167590 26.556501
Si 23.211501 10.273349 21.416772
Si 29.210388 23.998353 2.228584
Si 3.273073 27.139253 22.247786
Si 25.504359 15.757181 28.312373
Si 4.438512 1.379531 25.164962
Si 10.999352 8.658696 8.240300
Si 4.704051 20.358822 23.844828
Si 15.256248 28.146429 1.994522
Si 19.998937 11.613483 5.726160
Si 16.024874 17.285520 18.797034
Si 9.022697 13.800515 2.530497
Si 18.436106 2.231949 7.981752
Si 7.022937 20.305444 28.236061
Si 24.281368 9.025691 24.141263
Si 16.816233 20.882089 3.510803
Si 21.664034 25.511269 8.452732
Si 12.136979 13.674330 2.876373
Si 6.035080 27.324225 21.025899
Si 28.682114 3.365079 28.051090
Si 11.510761 26.261468 28.661885
Si 12.975707 27.368290 3.819435
Si 8.974266 10.143759 22.432660
Si 0.488516 17.547204 14.103860
Si 9.868902 12.901522 7.098269
Si 12.042039 2.487444 0.741120
Si 23.599136 24.642837 16.197843
Si 20.640535 25.193204 19.596906
Si 13.782389 6.917783 26.082506
Si 12.114680 9.299635 29.499083
Si 7.425757 14.659073 25.081440
Si 21.808259 7.689951 25.318595
Si 26.406910 17.810006 17.995843
Si 11.504452 25.025858 13.858701
Si 4.569323 16.838365 27.902773
Si 7.645555 18.608807 7.394308
Si 10.056531 0.662742 2.229566
Si 26.957387 0.118198 2.240359
Si 9.082725 10.349961 19.158864
Si 6.190248 25.757029 24.609649
Si 27.785100 26.628105 5.841507
Si 10.206551 21.161598 22.060014
Si 14.059795 4.902862 10.757958
Si 23.407370 14.451867 16.096529
Si 13.895990 7.812783 11.722080
Si 10.269443 20.735173 2.991332
Si 10.783596 27.656512 15.462650
Si 0.435092 18.068358 21.442247
Si 3.883298 15.353190 10.747643
Si 14.183877 23.194776 19.635963
Si 0.659893 15.228591 5.420234
Si 16.884833 24.888357 17.368442
Si 3.081083 5.411737 19.501266
Si 25.151242 27.893659 28.090447
Si 2.228464 26.798355 13.802318
Si 0.966995 7.763502 2.295753
Si 10.965266 15.725982 11.832320
Si 25.816416 9.573954 19.744923
Si 24.410657 0.837981 20.992450
Si 0.028141 18.218387 5.812534
Si 2.548323 21.298298 18.886666
Si 4.380116 15.375823 25.393998
Si 4.325957 29.006289 14.279016
Si 22.284543 7.719087 9.341053
Si 15.854824 22.041387 12.104731
Si 28.279024 13.317307 14.919054
Si 22.987699 3.531312 0.506737
Si 11.320683 8.918544 26.340084
Si 6.262343 24.214770 27.061941
Si 4.911975 23.291017 19.591097
Si 5.128542 25.996580 5.141792
Si 3.573909 15.787075 19.662215
Si 15.402161 18.198257 26.267477
Si 16.302999 0.668780 6.360854
Si 4.528844 4.829775 3.122053
Si 16.107895 6.398403 20.907426
Si 27.640989 7.270029 20.733671
Si 5.162051 1.490724 12.627297
Si 15.174929 1.321446 24.551464
Si 8.671062 25.158252 28.655675
Si 15.815066 29.757690 16.845876
Si 3.120431 12.028219 29.783027
Si 13.622655 16.358162 20.513248
Si 21.392236 22.400413 25.897635
Si 3.195200 0.467230 0.144712
Si 7.930627 11.211423 1.192817
Si 19.113698 11.257390 18.616971
Si 19.214546 17.997263 1.937328
Si 19.499463 24.369397 24.139660
Si 13.948632 16.294769 2.682449
Si 14.202204 13.301084 25.573461
Si 29.739763 3.716885 5.182632
Si 18.936539 25.541514 5.399239
Si 20.599274 9.203441 27.755958
Si 23.217009 24.896469 12.830795
Si 16.897552 4.865727 3.685659
Si 1.424575 7.205687 13.844793
Si 15.585330 22.564954 5.511834
Si 28.555693 29.310934 12.946605
Si 25.245881 12.354798 14.773741
Si 19.405225 3.394753 29.376131
Si 15.132466 23.648140 1.350198
Si 17.392777 18.431299 21.437402
Si 21.261645 10.293378 8.055069
Si 10.850394 4.545969 6.830065
Si 21.236708 20.087525 10.912485
Si 25.862183 3.664989 13.934712
Si 24.810243 5.912681 15.929734
Si 20.304342 12.904302 0.508545
Si 6.669950 28.450675 9.099589
Si 27.127036 29.834803 21.526432
Si 8.248743 27.050224 11.384977
Si 27.717902 27.142158 11.286933
Si 4.297306 10.431881 24.525981
Si 22.562450 29.845919 23.094630
Si 9.294154 5.049246 24.429184
Si 6.126544 22.088355 1.735863
Si 6.560280 1.350088 20.551104
Si 28.472808 8.544987 10.125432
Si 8.433794 21.063454 5.492506
Si 29.416290 14.219128 0.421117
Si 9.542273 16.580976 18.706588
Si 29.198871 7.054133 7.599652
Si 28.217649 18.742131 25.555810
Si 1.056618 10.166092 23.809577
Si 5.831438 7.070867 20.177867
Si 23.432925 27.558468 16.526809
Si 25.377073 10.994104 12.037333
Si 17.508046 29.921930 3.323128
Si 29.817177 24.249722 5.259044
Si 20.711939 27.859409 15.151494
Si 22.980763 24.980192 25.754726
Si 3.791083 3.593714 0.417111
Si 18.119442 9.718876 4.439773
Si 1.327038 2.302336 9.320417
Si 16.833758 18.777305 0.034951
Si 10.369489 14.769134 20.928356
Si 28.694232 28.003821 17.768227
Si 0.360628 19.995490 12.379334
Si 17.128912 0.562039 21.082884
Si 5.804152 12.645824 13.765464
Si 23.809076 7.034024 13.198033
Si 1.156805 13.730913 2.924264
Si 20.253329 13.747805 3.795740
Si 2.095840 7.914874 6.901820
Si 9.540866 16.012455 0.477904
Si 4.935780 10.690359 27.614851
Si 0.927066 22.530094 7.548850
Si 11.396894 14.444058 28.601997
Si 1.793307 19.446486 3.566384
Si 4.687156 15.670154 22.493349
Si 24.844993 21.404153 19.978565
Si 20.375882 18.638655 28.073855
Si 18.974394 5.302708 12.296412
Si 8.013188 10.776085 12.957380
Si 12.406150 2.384592 24.857493
Si 1.458346 4.326758 28.853866
Si 24.608848 18.782313 21.703492
Si 19.198422 27.889353 1.996865
Si 13.634472 1.047264 10.020378
Si 3.152167 3.996404 12.602761
Si 4.243897 14.510355 2.535905
Si 14.682242 2.783607 4.438860
Si 29.917524 10.911684 19.508276
Si 0.634958 25.637855 21.820864
Si 4.606888 19.745624 7.652269
Si 21.049934 24.402646 3.472807
Si 26.497714 14.604693 20.997157
Si 12.110640 23.599669 17.329685
Si 2.010625 26.043048 5.715272
Si 27.739993 15.418817 17.027141
Si 11.090846 8.020108 21.770089
Si 11.616416 11.640251 24.810343
Si 25.635251 6.396049 22.808110
Si 22.124006 0.376613 0.783652
Si 7.325110 28.357939 23.629813
Si 8.386753 4.347473 11.569305
Si 20.966212 22.785877 12.074086
Si 14.233213 18.335283 7.968305
Si 21.556476 10.537335 17.148419
Si 8.125062 25.389792 19.724793
Si 17.657966 2.496327 23.010306
Si 10.970570 16.278145 5.589598
Si 13.295676 20.439841 6.074538
Si 28.781059 21.334251 16.610431
Si 12.906205 29.910313 16.134634
Si 16.177898 19.236979 16.299676
Si 22.155153 14.792969 7.291100
Si 17.196790 24.759769 11.248076
Si 2.798063 29.198051 24.562997
Si 19.370374 23.599569 9.408311
Si 15.466756 10.653706 26.660954
Si 17.219323 25.796688 1.085700
Si 5.004431 11.676704 2.216046
Si 16.300577 5.074583 23.586750
Si 2.019628 9.752946 16.286957
Si 15.684976 11.328995 29.593649
Si 17.516759 13.736421 29.212291
Si 19.180095 4.129179 5.688933
Si 8.765330 5.838603 8.898244
Si 11.536499 29.027420 27.022283
Si 0.046368 4.319457 16.823644
Si 21.610556 27.725813 12.218197
Si 28.169363 3.859984 12.111141
Si 16.037792 28.370758 19.528305
Si 23.822496 29.842915 11.564740
Si 4.556805 23.847032 29.668659
Si 0.676460 23.187265 23.541785
Si 11.351054 12.437637 19.139342
Si 10.118922 27.684453 24.765076
Si 20.459970 1.860916 24.197044
Si 16.741423 1.658139 10.352364
Si 28.284532 10.931513 5.700721
Si 25.572459 1.396946 25.852970
Si 22.155666 17.057317 15.306340
Si 22.432259 1.494579 15.484782
Si 28.274317 18.553578 10.549253
Si 12.389749 13.429772 5.773147
Si 11.049486 13.246103 15.894483
Si 29.560401 2.979474 25.034171
Si 5.406279 24.612553 12.643621
Si 6.868541 22.285932 17.011823
Si 12.246339 29.259961 6.101708
Si 6.025566 7.393600 5.735622
Si 22.854490 15.586241 3.413187
Si 27.294682 8.673735 27.750850
Si 23.869464 4.651854 3.298712
Si 20.681795 8.067828 3.398358
Ca 8.685418 6.805876 19.242771
Ca 19.896934 9.267155 0.852282
Ca 7.571060 21.655822 20.031142
Ca 29.875939 6.768910 27.048887
Ca 21.439805 27.428678 28.332001
Ca 22.791986 17.199094 18.600346
Ca 29.635611 1.345401 0.737619
Ca 21.568494 17.706937 6.385233
Ca 27.894554 26.222758 20.675441
Ca 25.898036 22.239777 14.800580
Ca 11.222339 6.491479 11.026552
Ca 12.210787 22.711068 0.980464
Ca 1.124127 19.212643 9.313813
Ca 22.599404 28.548218 19.566562
Ca 5.854766 25.378976 16.844875
Ca 29.129952 16.685720 27.220637
Ca 8.187470 18.758297 1.727104
Ca 7.878645 1.215863 11.273570
Ca 29.604004 2.195156 21.225867
Ca 15.621550 21.560753 28.361912
Ca 12.214197 5.967243 1.020790
Ca 25.770327 28.302716 19.243376
Ca 5.543751 14.974435 7.004781
Ca 1.909197 29.453644 6.441956
Ca 15.444347 13.391773 19.480051
Ca 12.104775 29.485754 0.325621
Ca 2.843515 12.546779 18.825776
Ca 22.178588 2.006149 9.331589
Ca 8.331356 14.206411 13.213178
Ca 15.222198 1.106381 1.069937
Ca 22.437867 13.198934 19.511180
Ca 13.892450 1.241048 28.139820
Ca 15.104112 4.542723 1.019957
Ca 23.739274 8.275051 28.415323
Ca 10.713293 24.043219 20.340195
Ca 13.522608 24.303701 7.398017
Ca 2.679174 28.768295 2.920604
Ca 24.182117 0.831144 3.306474
Ca 26.319854 5.130045 6.217467
Ca 12.569612 23.881582 4.109440
Ca 25.545319 20.161833 8.570334
Ca 16.680534 9.288286 18.771597
Ca 4.113996 26.934855 27.012268
Ca 18.357390 0.582267 12.655138
Ca 23.226803 22.403765 9.842712
Ca 9.103195 24.769783 16.400924
Ca 29.455247 15.662943 23.637024
Ca 10.668928 16.752439 14.803384
Ca 26.160520 28.850761 8.729667
Ca 20.059283 15.902695 9.248537
Ca 0.265990 10.716598 8.638834
Ca 23.379465 3.989637 24.318065
Ca 22.124208 26.366222 22.253998
Ca 8.960265 23.956492 9.146718
Ca 21.695981 13.020773 22.786678
Ca 18.777283 8.313373 8.943903
Ca 28.551105 0.325601 27.174732
Ca 9.360782 24.000757 25.346628
Ca 1.861353 28.613864 17.097235
Ca 20.735974 3.873865 26.507829
Ca 17.923109 23.569243 3.514543
Ca 9.560935 12.863543 10.280960
Ca 9.319356 16.200721 8.615798
Ca 17.633230 0.788149 26.608677
Ca 0.673374 14.339542 12.704006
Ca 7.655744 23.869665 4.698292
Ca 26.711828 2.872818 3.748291
Ca 26.741271 4.394347 25.723781
Ca 12.157008 2.317975 18.987513
Ca 10.868821 3.059191 9.940401
Ca 10.846588 9.438766 2.189788
Ca 22.986972 11.815407 5.201850
Ca 18.402957 14.769835 6.726894
Ca 10.683449 17.891007 27.345957
Ca 23.054971 17.298740 27.370793
Ca 15.878106 23.735024 25.651338
Ca 7.853504 9.232314 3.546745
Ca 2.497078 1.369887 15.331458
Ca 9.557440 20.697418 9.828998
Ca 20.908527 0.552484 27.705083
Ca 19.783479 28.097558 20.961805
Ca 12.483286 18.279977 11.033262
Ca 15.344577 26.462863 5.785044
Ca 1.291812 16.001601 16.962302
Ca 3.558543 18.108325 11.989563
Ca 6.805599 7.511653 16.602520
Ca 29.936264 23.936708 18.299222
Ca 3.467800 7.905941 22.197415
Ca 28.395895 20.628818 7.485054
Ca 4.808750 9.540971 14.070674
Ca 21.251958 8.154592 14.739475
Ca 16.271835 16.147253 13.432877
Ca 26.679681 3.010390 22.726791
Ca 11.460087 8.449066 17.632128
Ca 10.589311 26.256661 6.301040
Ca 2.720365 16.607227 7.739166
Ca 28.615817 22.258605 29.529155
Ca 27.656669 18.890011 14.106942
Ca 12.499009 5.599673 4.451821
Ca 20.729064 20.948686 4.488895
Ca 14.952102 16.292365 23.475287
Ca 12.541972 19.642172 20.749194
Ca 21.744852 21.053440 20.270593
Ca 9.233215 1.124718 24.137657
Ca 13.342645 9.096795 23.940068
Ca 8.214513 9.989032 6.928529
Ca 28.100986 6.760381 4.080851
Ca 27.683652 7.908855 17.524671
Ca 1.953303 10.672919 4.642154
Ca 18.961930 21.239253 0.553402
Ca 29.093216 22.251995 10.770978
Ca 1.558924 17.727468 24.860015
Ca 11.531592 19.008845 0.547602
Ca 20.438539 21.079978 23.245050
Ca 1.595016 10.834771 12.860138
Ca 8.690540 22.816122 13.163983
Ca 4.370792 18.075778 1.316498
Ca 6.832058 5.654893 0.822340
Ca 4.790828 1.834147 3.567346
Ca 24.299194 24.802932 28.919262
Ca 26.023520 1.849730 29.651234
Ca 27.634179 16.004343 12.950170
Ca 29.465980 10.424913 2.242242
Ca 18.778613 7.970549 16.953848
Ca 10.459021 27.074459 21.849405
Ca 18.441413 21.030105 27.252019
Ca 9.869567 1.624169 17.027442
Ca 5.496571 22.386192 14.485118
Ca 2.963301 0.353217 20.621707
Ca 20.300737 20.518055 7.853424
Ca 10.913809 10.307066 11.843618
Ca 19.449690 3.867265 18.532146
Ca 16.897452 5.424266 8.518118
Ca 16.334227 11.214227 15.933339
Ca 3.774268 23.559951 22.463808
Ca 13.359993 2.938873 7.275632
Ca 23.201186 11.707049 29.264968
Ca 5.928845 5.763803 27.796617
Ca 6.962599 29.677072 26.595458
Ca 12.383604 23.137374 27.314290
Ca 18.689477 15.982712 23.132084
Ca 8.697080 17.600181 11.153237
Ca 21.195554 0.727345 6.510135
Ca 25.977853 21.790519 4.439102
Ca 3.497453 18.638001 15.036826
Ca 29.181546 23.505431 13.859502
Ca 12.417990 29.692594 22.735203
Ca 7.995883 28.037069 17.326580
Ca 2.426434 26.205787 19.132726
Ca 13.728828 17.483821 13.998360
Ca 13.228277 13.277049 21.990412
Ca 10.714194 0.761558 8.047268
Ca 29.481433 17.932633 17.892644
Ca 14.826017 23.406586 15.153597
Ca 8.813450 29.286600 5.262669
Ca 17.533884 2.736408 16.101686
Ca 22.024762 21.382421 29.079897
Ca 2.516578 3.634598 6.934671
Ca 21.578509 18.546167 25.046088
Ca 13.687550 26.325562 15.778813
Ca 23.353709 4.684582 7.770022
Ca 14.222333 2.558177 15.639609
Ca 3.550120 10.251617 8.482435
Ca 29.963406 14.726107 19.812557
Ca 24.840487 25.951614 9.677816
Ca 13.758814 6.805389 8.014451
Ca 9.358789 23.122971 1.505115
Ca 0.000601 5.828808 23.001994
Ca 13.154269 13.848385 13.622855
Ca 20.996857 27.489167 24.976686
Ca 8.709368 7.749822 29.868352
Ca 8.886938 20.389066 15.479675
Ca 6.398943 13.171193 19.280042
Ca 8.355681 3.386241 14.503739
Ca 6.619597 25.360449 1.286394
Ca 3.909837 0.216016 9.451745
Ca 4.845778 13.866111 16.831856
Ca 24.772587 15.715220 5.802600
Ca 5.390631 2.367080 28.357602
Ca 29.393757 26.582338 8.510917
Ca 28.188191 7.989653 0.743457
Ca 12.065073 15.568605 8.706093
Ca 16.273538 20.504736 24.120332
Ca 9.593334 4.582474 21.047208
Ca 21.322133 6.582412 29.893188
Ca 22.049899 11.623827 26.152709
Ca 14.474703 2.632967 21.407959
Ca 24.111160 18.845511 4.964195
Ca 16.155365 21.030406 8.515784
Ca 12.967737 18.966137 23.703193
Ca 1.804884 21.805742 0.631576
Ca 17.978936 27.850296 10.768574
Ca 12.845216 15.827084 17.442250
Ca 11.367798 27.047272 18.578476
Ca 9.273684 0.907259 28.654173
Ca 19.932300 15.413021 12.909689
Ca 23.924445 22.342328 1.061004
Ca 17.894412 6.655409 28.809801
Ca 21.786714 6.648679 17.965616
Ca 19.616435 4.908780 1.821909
Ca 26.984528 29.628601 5.614064
Ca 10.365584 20.639734 25.256396
Ca 20.282510 5.480398 22.982465
Ca 29.478981 29.094819 4.002793
Ca 24.604942 28.139920 0.748710
Ca 11.183482 2.157240 4.835012
Ca 22.469213 20.664970 14.566838
Ca 0.478801 5.417936 10.751950
Ca 7.492555 17.609695 14.402798
Ca 0.220423 19.737812 27.719304
Ca 27.654373 27.755516 29.876429
Ca 4.962339 10.869221 5.631549
Ca 20.505537 19.321903 17.759915
Ca 5.720369 28.819816 2.042171
Ca 28.371059 25.982059 23.963803
Ca 12.895389 20.918442 14.808191
Ca 5.460479 20.296230 4.101538
Ca 6.020930 1.216081 16.369679
Ca 26.481376 24.695235 17.804687
Ca 7.514437 7.257170 13.369884
Ca 25.929382 10.188925 3.402194
Ca 7.227417 11.505153 16.497266
Ca 16.469089 13.094289 23.041552
Ca 13.386019 10.087390 4.339844
Ca 3.460139 27.485131 10.765309
Ca 25.380878 27.165192 3.745697
Ca 24.538645 17.318468 1.086592
Ca 24.201011 20.959664 24.976046
Ca 19.824162 29.924959 9.701772
Ca 26.376637 4.292968 9.744143
Ca 26.544577 5.860606 29.000386
Ca 7.342295 23.218711 22.539817
Ca 10.267740 21.171212 18.454332
Ca 26.853536 1.176994 9.806184
Ca 21.359989 15.796840 0.358425
Ca 11.500246 1.786837 13.114510
Ca 12.915719 5.433429 23.398675
Ca 2.841602 21.613560 12.710418
Ca 16.794801 8.551036 24.405550
Ca 22.019755 2.822344 20.347205
Ca 18.119140 12.078025 8.599254
Ca 26.707221 18.589831 28.813607
Ca 0.546244 28.885627 20.387298
Ca 28.763634 11.990364 11.618719
Ca 6.104352 10.397531 20.675085
Ca 3.930808 8.452832 2.871046
Ca 13.069545 10.462325 14.951201
Ca 25.018648 26.676576 24.229091
Ca 4.753126 3.402225 10.055594
Ca 14.010950 29.515171 12.636850
Ca 17.738384 14.799579 2.264147
Ca 26.694803 24.904280 26.674573
P 4.828473 8.264075 29.592848
P 26.271483 24.858313 1.712388
P 9.481629 12.968497 26.584842
P 25.135146 20.682607 12.315282
P 8.614799 27.092686 3.281797
P 7.676314 1.065270 8.226290
P 18.632894 28.110477 6.890924
P 16.344407 3.464135 28.437260
P 13.435681 21.874142 10.123028
P 24.949847 7.327984 2.294050
P 8.579870 7.457728 26.311380
P 7.624507 13.007386 5.015404
P 17.859761 28.607104 23.533372
P 12.601533 4.430116 27.125240
P 11.725876 5.005021 14.254080
P 4.722658 10.227982 17.690413
P 27.842756 4.585847 1.238157
P 29.596654 30.030990 8.103951
P 23.805571 4.631454 28.027555
P 20.997157 14.983648 25.423441
P 5.184534 16.617141 4.549945
P 25.043168 1.861526 6.908039
P 7.119509 27.872428 28.988162
P 25.697600 10.119643 7.202835
P 24.877741 25.825730 20.966612
P 10.487545 5.112297 16.573814
P 18.741253 25.913058 26.788741
P 25.532329 21.660429 28.218514
P 5.096996 29.114247 5.307014
P 27.597025 13.209850 25.813112
P 9.015762 0.006589 14.503816
P 16.334127 8.604304 0.746431
P 9.284318 29.989959 19.872133
P 1.676996 21.580011 15.888975
P 24.519517 20.242552 17.211912
P 1.392670 1.602828 4.437350
P 29.774314 24.807138 27.166794
P 2.506772 3.560556 21.912999
P 11.424265 15.912374 23.846957
P 9.244935 6.014539 3.112223
P 23.040951 21.323635 6.548392
P 7.373711 1.973711 1.132829
P 11.000824 28.634813 10.995346
P 9.727359 21.445814 28.648265
P 21.880751 19.683032 1.828528
P 16.079153 11.758925 3.373962
P 19.659097 5.217693 15.321343
P 23.162729 6.062300 21.211371
P 4.877384 28.417126 18.309420
P 17.908733 6.203016 25.634149
P 9.550590 9.534286 15.261555
P 14.924462 6.536254 17.073910
P 20.563822 6.858797 6.183037
P 3.188070 6.431461 25.493744
P 18.617872 16.122917 18.189544
P 13.095884 12.390765 10.011896
O 23.953788 13.057227 9.706008
O 11.577139 15.068829 22.321377
O 10.233691 21.032309 13.635073
O 18.712010 28.043579 8.392514
O 17.170550 27.980205 28.848293
O 5.210022 27.617555 5.047994
O 26.988834 11.449071 22.566055
O 19.908963 1.692249 8.208975
O 2.336585 5.107571 8.263895
O 7.424726 21.992315 9.065059
O 17.940980 9.476692 12.341778
O 20.494421 3.177835 5.424866
O 12.419092 7.811993 25.954819
O 14.577353 28.103867 24.508601
O 9.456502 13.429672 15.824680
O 18.739578 1.388708 14.723483
O 27.654108 28.701242 11.767738
O 24.124338 0.599675 25.898837
O 3.690202 16.760105 10.059825
O 12.053456 10.634377 0.172553
O 15.499003 25.159955 16.694054
O 5.751235 28.256090 14.317272
O 19.859991 8.340838 28.839645
O 21.769149 13.788663 15.868248
O 10.583904 23.371635 17.701229
O 4.568126 20.032802 12.880266
O 0.080818 18.994023 7.176012
O 25.042282 2.296284 20.690107
O 5.341514 24.189033 28.372761
O 14.807390 18.513920 24.818455
O 10.030293 27.109711 16.697859
O 7.566043 9.767648 9.475470
O 27.589019 12.498948 5.476637
O 10.097892 16.745229 23.790148
O 0.030645 18.190746 0.976333
O 0.471401 28.098059 2.309273
O 21.081681 19.051106 22.585283
O 6.547518 2.271039 21.830006
O 17.565931 2.621931 9.299903
O 9.836058 0.990018 14.606997
O 11.460988 10.077662 25.269215
O 23.257295 15.969270 7.624150
O 10.838977 24.872534 22.685230
O 26.256708 1.397279 18.620411
O 12.799566 11.983731 19.296240
O 5.725723 6.894998 7.049165
O 27.436779 2.543752 11.511774
O 0.861864 4.789205 4.901350
O 14.494131 27.613549 3.299964
O 4.129647 26.874177 2.422582
O 7.954262 5.042326 12.760692
O 5.977005 4.570665 23.221515
O 17.666078 0.476999 10.331334
O 19.739908 5.724296 5.736137
O 20.427823 1.339622 11.787767
O 16.787090 12.313036 29.243036
O 8.233901 19.889234 6.597424
O 28.090347 14.806589 15.516329
O 27.181516 27.025087 9.781558
O 14.265714 7.682496 13.280794
O 24.340955 25.346128 26.451947
O 26.873365 26.144697 12.195965
O 25.946253 7.701197 3.252979
O 7.507607 25.023355 24.107213
O 18.563292 19.888133 24.808440
O 11.007023 14.721965 24.738838
O 20.004303 22.944109 13.328824
O 2.879699 6.907801 14.402218
O 29.507423 15.757081 0.060789
O 25.585378 16.181102 8.516365
O 28.366852 29.955880 8.868661
O 2.052336 6.466733 18.829282
O 28.633944 12.895690 26.814779
O 17.138104 3.680982 18.459039
O 2.330704 3.770473 27.632477
O 20.295429 28.096556 11.444064
O 24.382015 24.239907 6.006058
O 19.723350 14.587572 26.235891
O 17.144614 8.688107 5.184214
O 25.956021 7.963846 27.406045
O 6.296403 25.181186 8.673826
O 24.263742 21.514815 13.128631
O 11.587173 9.413629 27.918796
O 5.995132 16.567068 22.588288
O 8.704551 1.441712 1.549810
O 25.917464 21.108720 2.166504
O 13.372789 0.388369 14.715856
O 25.776959 24.697477 3.114903
O 13.232984 17.478603 8.885966
O 21.881252 22.233568 6.454785
O 7.751845 25.872799 3.404717
O 14.929870 24.019484 5.427120
O 5.170975 23.206293 9.873843
O 19.686585 29.078632 6.238465
O 8.874459 8.456227 11.514567
O 26.700311 24.060745 10.692262
O 17.169350 28.230853 6.439403
O 8.886195 13.192563 5.973244
O 22.123121 22.421095 22.298369
O 23.278299 19.546532 17.621713
O 21.779904 25.766944 26.538074
O 12.305726 3.028186 23.278399
O 17.543198 14.132902 27.609743
O 0.613509 17.745194 19.927891
O 22.573636 28.539625 4.185395
O 7.898470 26.643228 28.632542
O 18.796534 10.862612 5.331880
O 14.823914 17.259582 6.803416
O 12.819078 10.394326 17.267293
O 5.916807 21.049534 16.607827
O 8.612624 16.567986 29.270964
O 27.358092 22.154434 9.186642
O 14.111871 22.163065 20.925853
O 4.470115 10.566784 26.107755
O 16.122216 26.948775 1.302067
O 13.054571 17.601299 2.680301
O 25.900239 1.388103 1.945430
O 11.275617 24.816352 9.876097
O 6.659009 7.133043 23.530693
O 2.528013 4.379736 20.645041
O 10.583992 17.511543 17.787610
O 12.163618 8.333828 20.583050
O 30.008858 23.154818 6.436849
O 15.534370 25.208693 7.945751
O 7.245443 8.416389 5.575988
O 12.944461 1.388834 0.206402
O 27.948339 13.828256 0.726847
O 10.940426 13.495569 20.072503
O 7.507577 18.877052 28.691228
O 2.536766 9.354753 6.544436
O 11.327292 0.054380 28.150535
O 28.995373 27.737931 16.240990
O 8.600588 9.845892 1.450755
O 7.058750 26.179348 20.595068
O 29.479482 5.600634 8.238919
O 25.947660 29.217955 2.343792
O 24.600936 6.215665 21.620070
O 12.074086 28.516472 16.036491
O 14.402998 21.541655 5.750804
O 27.569885 13.442391 20.830213
O 20.968916 25.857376 29.787233
O 8.479685 25.647853 10.634710
O 18.730337 18.090299 3.453369
O 13.600723 8.588971 29.401969
O 9.948323 2.520352 22.268519
O 5.085029 20.771627 8.781734
O 12.941156 26.100833 4.714866
O 14.214822 10.574490 6.359045
O 4.009012 20.098941 25.347029
O 7.698116 11.543409 29.784028
O 25.423140 24.134753 0.748639
O 1.279127 14.053386 24.546092
O 6.968087 30.000145 8.821622
O 6.462597 11.164855 27.535535
O 19.267323 8.416389 14.392883
O 8.625325 8.361578 15.334963
O 26.792046 3.761490 19.386598
O 16.519298 21.731132 26.020716
O 26.291813 13.523610 26.391759
O 5.423414 7.202010 14.482114
O 18.021298 15.479775 11.313973
O 0.127033 24.567147 22.906500
O 5.397016 0.941052 11.159346
O 1.483211 9.443755 10.162516
O 17.457372 22.578473 21.379317
O 23.032319 6.580918 19.949490
O 4.307299 6.722627 26.487399
O 18.689577 15.514025 16.843473
O 4.241303 16.656098 26.388154
O 1.961393 17.572240 13.773576
O 3.721301 9.921894 12.210586
O 21.456530 14.802183 3.685228
O 1.647984 25.954819 7.354283
O 1.470949 28.157335 28.292830
O 16.495563 11.816910 12.222303
O 2.021556 6.895642 10.238954
O 19.042499 17.266460 25.000462
O 25.534904 29.780523 21.011879
O 12.324153 5.159638 6.983419
O 11.081223 9.070547 15.244963
O 18.837393 5.234858 26.302528
O 4.364554 0.417792 13.446033
O 17.149621 21.057746 11.691426
O 27.558969 1.201840 21.506503
O 13.921893 6.292127 2.631665
O 21.678355 27.143060 8.552308
O 15.498002 25.671204 24.324431
O 20.161833 22.944209 10.666124
O 16.827349 27.550557 23.421408
O 21.106617 10.706483 6.489967
O 18.884262 14.275912 4.305577
O 8.988085 20.522049 4.096663
O 22.566155 23.627310 16.780681
O 19.195117 25.516076 20.202693
O 25.861675 1.974107 27.047936
O 7.157024 13.825151 16.863602
O 8.029272 17.396103 6.495553
O 22.295058 8.611104 10.671131
O 29.851527 16.524005 13.118817
O 12.304803 16.201540 12.896327
O 7.756472 25.589384 18.212077
O 2.364798 28.078254 21.425247
O 23.298929 8.467834 25.330405
O 11.182681 19.442279 3.080733
O 4.289565 11.957137 20.755743
O 19.263818 11.784763 12.016702
O 23.603508 0.581238 15.185191
O 17.978335 19.626249 8.096840
O 14.533789 15.624988 29.082100
O 26.159118 29.896092 15.035524
O 5.266444 24.727021 4.140585
O 25.644164 11.392688 8.401637
O 11.354633 12.944662 17.472995
O 16.718590 2.249766 11.877999
O 10.119724 19.321703 11.588876
O 10.203989 22.032406 27.331093